# vtk DataFile Version 5.4
                      Uniform Nozzle Grid
ASCII
DATASET UNSTRUCTURED_GRID
POINTS  7644 float
   0.00   0.00 0
   0.00   1.25 0
   0.00   3.75 0
   0.00   6.25 0
   0.00   8.75 0
   0.00  11.25 0
   0.00  13.75 0
   0.00  16.25 0
   0.00  18.75 0
   0.00  21.25 0
   0.00  23.75 0
   0.00  26.25 0
   0.00  28.75 0
   0.00  31.25 0
   0.00  33.75 0
   0.00  36.25 0
   0.00  38.75 0
   0.00  41.25 0
   0.00  43.75 0
   0.00  46.25 0
   0.00  48.75 0
   0.00  51.25 0
   0.00  53.75 0
   0.00  56.25 0
   0.00  58.75 0
   0.00  61.25 0
   0.00  63.75 0
   0.00  66.25 0
   0.00  68.75 0
   0.00  71.25 0
   0.00  73.75 0
   0.00  76.25 0
   0.00  78.75 0
   0.00  81.25 0
   0.00  83.75 0
   0.00  86.25 0
   0.00  88.75 0
   0.00  91.25 0
   0.00  93.75 0
   0.00  96.25 0
   0.00  98.75 0
   0.00 100.00 0
   0.83   0.00 0
   0.83   1.25 0
   0.83   3.75 0
   0.83   6.25 0
   0.83   8.75 0
   0.83  11.25 0
   0.83  13.75 0
   0.83  16.25 0
   0.83  18.75 0
   0.83  21.25 0
   0.83  23.75 0
   0.83  26.25 0
   0.83  28.75 0
   0.83  31.25 0
   0.83  33.75 0
   0.83  36.25 0
   0.83  38.75 0
   0.83  41.25 0
   0.83  43.75 0
   0.83  46.25 0
   0.83  48.75 0
   0.83  51.25 0
   0.83  53.75 0
   0.83  56.25 0
   0.83  58.75 0
   0.83  61.25 0
   0.83  63.75 0
   0.83  66.25 0
   0.83  68.75 0
   0.83  71.25 0
   0.83  73.75 0
   0.83  76.25 0
   0.83  78.75 0
   0.83  81.25 0
   0.83  83.75 0
   0.83  86.25 0
   0.83  88.75 0
   0.83  91.25 0
   0.83  93.75 0
   0.83  96.25 0
   0.83  98.75 0
   0.83 100.00 0
   2.50   0.00 0
   2.50   1.25 0
   2.50   3.75 0
   2.50   6.25 0
   2.50   8.75 0
   2.50  11.25 0
   2.50  13.75 0
   2.50  16.25 0
   2.50  18.75 0
   2.50  21.25 0
   2.50  23.75 0
   2.50  26.25 0
   2.50  28.75 0
   2.50  31.25 0
   2.50  33.75 0
   2.50  36.25 0
   2.50  38.75 0
   2.50  41.25 0
   2.50  43.75 0
   2.50  46.25 0
   2.50  48.75 0
   2.50  51.25 0
   2.50  53.75 0
   2.50  56.25 0
   2.50  58.75 0
   2.50  61.25 0
   2.50  63.75 0
   2.50  66.25 0
   2.50  68.75 0
   2.50  71.25 0
   2.50  73.75 0
   2.50  76.25 0
   2.50  78.75 0
   2.50  81.25 0
   2.50  83.75 0
   2.50  86.25 0
   2.50  88.75 0
   2.50  91.25 0
   2.50  93.75 0
   2.50  96.25 0
   2.50  98.75 0
   2.50 100.00 0
   4.17   0.00 0
   4.17   1.25 0
   4.17   3.75 0
   4.17   6.25 0
   4.17   8.75 0
   4.17  11.25 0
   4.17  13.75 0
   4.17  16.25 0
   4.17  18.75 0
   4.17  21.25 0
   4.17  23.75 0
   4.17  26.25 0
   4.17  28.75 0
   4.17  31.25 0
   4.17  33.75 0
   4.17  36.25 0
   4.17  38.75 0
   4.17  41.25 0
   4.17  43.75 0
   4.17  46.25 0
   4.17  48.75 0
   4.17  51.25 0
   4.17  53.75 0
   4.17  56.25 0
   4.17  58.75 0
   4.17  61.25 0
   4.17  63.75 0
   4.17  66.25 0
   4.17  68.75 0
   4.17  71.25 0
   4.17  73.75 0
   4.17  76.25 0
   4.17  78.75 0
   4.17  81.25 0
   4.17  83.75 0
   4.17  86.25 0
   4.17  88.75 0
   4.17  91.25 0
   4.17  93.75 0
   4.17  96.25 0
   4.17  98.75 0
   4.17 100.00 0
   5.83   0.00 0
   5.83   1.25 0
   5.83   3.75 0
   5.83   6.25 0
   5.83   8.75 0
   5.83  11.25 0
   5.83  13.75 0
   5.83  16.25 0
   5.83  18.75 0
   5.83  21.25 0
   5.83  23.75 0
   5.83  26.25 0
   5.83  28.75 0
   5.83  31.25 0
   5.83  33.75 0
   5.83  36.25 0
   5.83  38.75 0
   5.83  41.25 0
   5.83  43.75 0
   5.83  46.25 0
   5.83  48.75 0
   5.83  51.25 0
   5.83  53.75 0
   5.83  56.25 0
   5.83  58.75 0
   5.83  61.25 0
   5.83  63.75 0
   5.83  66.25 0
   5.83  68.75 0
   5.83  71.25 0
   5.83  73.75 0
   5.83  76.25 0
   5.83  78.75 0
   5.83  81.25 0
   5.83  83.75 0
   5.83  86.25 0
   5.83  88.75 0
   5.83  91.25 0
   5.83  93.75 0
   5.83  96.25 0
   5.83  98.75 0
   5.83 100.00 0
   7.50   0.00 0
   7.50   1.25 0
   7.50   3.75 0
   7.50   6.25 0
   7.50   8.75 0
   7.50  11.25 0
   7.50  13.75 0
   7.50  16.25 0
   7.50  18.75 0
   7.50  21.25 0
   7.50  23.75 0
   7.50  26.25 0
   7.50  28.75 0
   7.50  31.25 0
   7.50  33.75 0
   7.50  36.25 0
   7.50  38.75 0
   7.50  41.25 0
   7.50  43.75 0
   7.50  46.25 0
   7.50  48.75 0
   7.50  51.25 0
   7.50  53.75 0
   7.50  56.25 0
   7.50  58.75 0
   7.50  61.25 0
   7.50  63.75 0
   7.50  66.25 0
   7.50  68.75 0
   7.50  71.25 0
   7.50  73.75 0
   7.50  76.25 0
   7.50  78.75 0
   7.50  81.25 0
   7.50  83.75 0
   7.50  86.25 0
   7.50  88.75 0
   7.50  91.25 0
   7.50  93.75 0
   7.50  96.25 0
   7.50  98.75 0
   7.50 100.00 0
   9.17   0.00 0
   9.17   1.25 0
   9.17   3.75 0
   9.17   6.25 0
   9.17   8.75 0
   9.17  11.25 0
   9.17  13.75 0
   9.17  16.25 0
   9.17  18.75 0
   9.17  21.25 0
   9.17  23.75 0
   9.17  26.25 0
   9.17  28.75 0
   9.17  31.25 0
   9.17  33.75 0
   9.17  36.25 0
   9.17  38.75 0
   9.17  41.25 0
   9.17  43.75 0
   9.17  46.25 0
   9.17  48.75 0
   9.17  51.25 0
   9.17  53.75 0
   9.17  56.25 0
   9.17  58.75 0
   9.17  61.25 0
   9.17  63.75 0
   9.17  66.25 0
   9.17  68.75 0
   9.17  71.25 0
   9.17  73.75 0
   9.17  76.25 0
   9.17  78.75 0
   9.17  81.25 0
   9.17  83.75 0
   9.17  86.25 0
   9.17  88.75 0
   9.17  91.25 0
   9.17  93.75 0
   9.17  96.25 0
   9.17  98.75 0
   9.17 100.00 0
  10.83   0.00 0
  10.83   1.25 0
  10.83   3.75 0
  10.83   6.25 0
  10.83   8.75 0
  10.83  11.25 0
  10.83  13.75 0
  10.83  16.25 0
  10.83  18.75 0
  10.83  21.25 0
  10.83  23.75 0
  10.83  26.25 0
  10.83  28.75 0
  10.83  31.25 0
  10.83  33.75 0
  10.83  36.25 0
  10.83  38.75 0
  10.83  41.25 0
  10.83  43.75 0
  10.83  46.25 0
  10.83  48.75 0
  10.83  51.25 0
  10.83  53.75 0
  10.83  56.25 0
  10.83  58.75 0
  10.83  61.25 0
  10.83  63.75 0
  10.83  66.25 0
  10.83  68.75 0
  10.83  71.25 0
  10.83  73.75 0
  10.83  76.25 0
  10.83  78.75 0
  10.83  81.25 0
  10.83  83.75 0
  10.83  86.25 0
  10.83  88.75 0
  10.83  91.25 0
  10.83  93.75 0
  10.83  96.25 0
  10.83  98.75 0
  10.83 100.00 0
  12.50   0.00 0
  12.50   1.25 0
  12.50   3.75 0
  12.50   6.25 0
  12.50   8.75 0
  12.50  11.25 0
  12.50  13.75 0
  12.50  16.25 0
  12.50  18.75 0
  12.50  21.25 0
  12.50  23.75 0
  12.50  26.25 0
  12.50  28.75 0
  12.50  31.25 0
  12.50  33.75 0
  12.50  36.25 0
  12.50  38.75 0
  12.50  41.25 0
  12.50  43.75 0
  12.50  46.25 0
  12.50  48.75 0
  12.50  51.25 0
  12.50  53.75 0
  12.50  56.25 0
  12.50  58.75 0
  12.50  61.25 0
  12.50  63.75 0
  12.50  66.25 0
  12.50  68.75 0
  12.50  71.25 0
  12.50  73.75 0
  12.50  76.25 0
  12.50  78.75 0
  12.50  81.25 0
  12.50  83.75 0
  12.50  86.25 0
  12.50  88.75 0
  12.50  91.25 0
  12.50  93.75 0
  12.50  96.25 0
  12.50  98.75 0
  12.50 100.00 0
  14.17   0.00 0
  14.17   1.25 0
  14.17   3.75 0
  14.17   6.25 0
  14.17   8.75 0
  14.17  11.25 0
  14.17  13.75 0
  14.17  16.25 0
  14.17  18.75 0
  14.17  21.25 0
  14.17  23.75 0
  14.17  26.25 0
  14.17  28.75 0
  14.17  31.25 0
  14.17  33.75 0
  14.17  36.25 0
  14.17  38.75 0
  14.17  41.25 0
  14.17  43.75 0
  14.17  46.25 0
  14.17  48.75 0
  14.17  51.25 0
  14.17  53.75 0
  14.17  56.25 0
  14.17  58.75 0
  14.17  61.25 0
  14.17  63.75 0
  14.17  66.25 0
  14.17  68.75 0
  14.17  71.25 0
  14.17  73.75 0
  14.17  76.25 0
  14.17  78.75 0
  14.17  81.25 0
  14.17  83.75 0
  14.17  86.25 0
  14.17  88.75 0
  14.17  91.25 0
  14.17  93.75 0
  14.17  96.25 0
  14.17  98.75 0
  14.17 100.00 0
  15.83   0.00 0
  15.83   1.25 0
  15.83   3.75 0
  15.83   6.25 0
  15.83   8.75 0
  15.83  11.25 0
  15.83  13.75 0
  15.83  16.25 0
  15.83  18.75 0
  15.83  21.25 0
  15.83  23.75 0
  15.83  26.25 0
  15.83  28.75 0
  15.83  31.25 0
  15.83  33.75 0
  15.83  36.25 0
  15.83  38.75 0
  15.83  41.25 0
  15.83  43.75 0
  15.83  46.25 0
  15.83  48.75 0
  15.83  51.25 0
  15.83  53.75 0
  15.83  56.25 0
  15.83  58.75 0
  15.83  61.25 0
  15.83  63.75 0
  15.83  66.25 0
  15.83  68.75 0
  15.83  71.25 0
  15.83  73.75 0
  15.83  76.25 0
  15.83  78.75 0
  15.83  81.25 0
  15.83  83.75 0
  15.83  86.25 0
  15.83  88.75 0
  15.83  91.25 0
  15.83  93.75 0
  15.83  96.25 0
  15.83  98.75 0
  15.83 100.00 0
  17.50   0.00 0
  17.50   1.25 0
  17.50   3.75 0
  17.50   6.25 0
  17.50   8.75 0
  17.50  11.25 0
  17.50  13.75 0
  17.50  16.25 0
  17.50  18.75 0
  17.50  21.25 0
  17.50  23.75 0
  17.50  26.25 0
  17.50  28.75 0
  17.50  31.25 0
  17.50  33.75 0
  17.50  36.25 0
  17.50  38.75 0
  17.50  41.25 0
  17.50  43.75 0
  17.50  46.25 0
  17.50  48.75 0
  17.50  51.25 0
  17.50  53.75 0
  17.50  56.25 0
  17.50  58.75 0
  17.50  61.25 0
  17.50  63.75 0
  17.50  66.25 0
  17.50  68.75 0
  17.50  71.25 0
  17.50  73.75 0
  17.50  76.25 0
  17.50  78.75 0
  17.50  81.25 0
  17.50  83.75 0
  17.50  86.25 0
  17.50  88.75 0
  17.50  91.25 0
  17.50  93.75 0
  17.50  96.25 0
  17.50  98.75 0
  17.50 100.00 0
  19.17   0.00 0
  19.17   1.25 0
  19.17   3.75 0
  19.17   6.25 0
  19.17   8.75 0
  19.17  11.25 0
  19.17  13.75 0
  19.17  16.25 0
  19.17  18.75 0
  19.17  21.25 0
  19.17  23.75 0
  19.17  26.25 0
  19.17  28.75 0
  19.17  31.25 0
  19.17  33.75 0
  19.17  36.25 0
  19.17  38.75 0
  19.17  41.25 0
  19.17  43.75 0
  19.17  46.25 0
  19.17  48.75 0
  19.17  51.25 0
  19.17  53.75 0
  19.17  56.25 0
  19.17  58.75 0
  19.17  61.25 0
  19.17  63.75 0
  19.17  66.25 0
  19.17  68.75 0
  19.17  71.25 0
  19.17  73.75 0
  19.17  76.25 0
  19.17  78.75 0
  19.17  81.25 0
  19.17  83.75 0
  19.17  86.25 0
  19.17  88.75 0
  19.17  91.25 0
  19.17  93.75 0
  19.17  96.25 0
  19.17  98.75 0
  19.17 100.00 0
  20.83   0.00 0
  20.83   1.25 0
  20.83   3.75 0
  20.83   6.25 0
  20.83   8.75 0
  20.83  11.25 0
  20.83  13.75 0
  20.83  16.25 0
  20.83  18.75 0
  20.83  21.25 0
  20.83  23.75 0
  20.83  26.25 0
  20.83  28.75 0
  20.83  31.25 0
  20.83  33.75 0
  20.83  36.25 0
  20.83  38.75 0
  20.83  41.25 0
  20.83  43.75 0
  20.83  46.25 0
  20.83  48.75 0
  20.83  51.25 0
  20.83  53.75 0
  20.83  56.25 0
  20.83  58.75 0
  20.83  61.25 0
  20.83  63.75 0
  20.83  66.25 0
  20.83  68.75 0
  20.83  71.25 0
  20.83  73.75 0
  20.83  76.25 0
  20.83  78.75 0
  20.83  81.25 0
  20.83  83.75 0
[...]
POINT_DATA 7644
SCALARS SPECIE_A float 1
LOOKUP_TABLE default
      0.9946861863136292E+00
      0.9946861863136292E+00
      0.9945546984672546E+00
      0.9942604303359985E+00
      0.9938284754753113E+00
      0.9932864308357239E+00
      0.9926597476005554E+00
      0.9919704198837280E+00
      0.9912346601486206E+00
      0.9904667735099792E+00
      0.9896776080131531E+00
      0.9888757467269897E+00
      0.9880684614181519E+00
      0.9872615933418274E+00
      0.9864603281021118E+00
      0.9856684207916260E+00
      0.9848906397819519E+00
      0.9841293096542358E+00
      0.9833872318267822E+00
      0.9826669692993164E+00
      0.9819700717926025E+00
      0.9812985658645630E+00
      0.9806541800498962E+00
      0.9800383448600769E+00
      0.9794522523880005E+00
      0.9788970947265625E+00
      0.9783734083175659E+00
      0.9778825640678406E+00
      0.9774250984191895E+00
      0.9770019650459290E+00
      0.9766138195991516E+00
      0.9762610197067261E+00
      0.9759443402290344E+00
      0.9756639599800110E+00
      0.9754202365875244E+00
      0.9752133488655090E+00
      0.9750434160232544E+00
      0.9749105572700500E+00
      0.9748154282569885E+00
      0.9747579097747803E+00
      0.9747378230094910E+00
      0.9747378230094910E+00
      0.9946861863136292E+00
      0.9946864247322083E+00
      0.9945549368858337E+00
      0.9942606687545776E+00
      0.9938287138938904E+00
      0.9932867288589478E+00
      0.9926600456237793E+00
      0.9919707179069519E+00
      0.9912350177764893E+00
      0.9904671907424927E+00
      0.9896780252456665E+00
      0.9888761639595032E+00
      0.9880689382553101E+00
      0.9872621297836304E+00
      0.9864608645439148E+00
      0.9856690168380737E+00
      0.9848912954330444E+00
      0.9841300249099731E+00
      0.9833879470825195E+00
      0.9826676845550537E+00
      0.9819707870483398E+00
      0.9812993407249451E+00
      0.9806550145149231E+00
      0.9800391793251038E+00
      0.9794530868530273E+00
      0.9788979887962341E+00
      0.9783743023872375E+00
      0.9778835177421570E+00
      0.9774259924888611E+00
      0.9770029187202454E+00
      0.9766148328781128E+00
      0.9762619733810425E+00
      0.9759453535079956E+00
      0.9756649732589722E+00
      0.9754212498664856E+00
      0.9752143621444702E+00
      0.9750444293022156E+00
      0.9749115705490112E+00
      0.9748165011405945E+00
      0.9747589230537415E+00
      0.9747388958930969E+00
      0.9747378230094910E+00
      0.9947459101676941E+00
      0.9947461485862732E+00
      0.9946100711822510E+00
      0.9943075180053711E+00
      0.9938663244247437E+00
      0.9933159351348877E+00
      0.9926819801330566E+00
      0.9919868707656860E+00
      0.9912465810775757E+00
      0.9904751181602478E+00
      0.9896830916404724E+00
      0.9888789057731628E+00
      0.9880697727203369E+00
      0.9872614145278931E+00
      0.9864588379859924E+00
      0.9856660366058350E+00
      0.9848875999450684E+00
      0.9841254949569702E+00
      0.9833827018737793E+00
      0.9826620817184448E+00
      0.9819645881652832E+00
      0.9812927842140198E+00
      0.9806482195854187E+00
      0.9800319671630859E+00
      0.9794457554817200E+00
      0.9788904190063477E+00
      0.9783664941787720E+00
      0.9778754711151123E+00
      0.9774178266525269E+00
      0.9769945144653320E+00
      0.9766064286231995E+00
      0.9762536287307739E+00
      0.9759367704391479E+00
      0.9756563305854797E+00
      0.9754124879837036E+00
      0.9752055406570435E+00
      0.9750357270240784E+00
      0.9749026894569397E+00
      0.9748075604438782E+00
      0.9747499823570251E+00
      0.9747299551963806E+00
      0.9747288823127747E+00
      0.9948877096176147E+00
      0.9948878884315491E+00
      0.9947401881217957E+00
      0.9944172501564026E+00
      0.9939534664154053E+00
      0.9933823347091675E+00
      0.9927312731742859E+00
      0.9920221567153931E+00
      0.9912710189819336E+00
      0.9904910326004028E+00
      0.9896921515464783E+00
      0.9888826012611389E+00
      0.9880691766738892E+00
      0.9872573614120483E+00
      0.9864521622657776E+00
      0.9856570959091187E+00
      0.9848767518997192E+00
      0.9841131567955017E+00
      0.9833694100379944E+00
      0.9826474785804749E+00
      0.9819491505622864E+00
      0.9812767505645752E+00
      0.9806313514709473E+00
      0.9800145626068115E+00
      0.9794278144836426E+00
      0.9788719415664673E+00
      0.9783475995063782E+00
      0.9778563380241394E+00
      0.9773983955383301E+00
      0.9769750237464905E+00
      0.9765865802764893E+00
      0.9762336015701294E+00
      0.9759166836738586E+00
      0.9756360650062561E+00
      0.9753920435905457E+00
      0.9751849770545959E+00
      0.9750149846076965E+00
      0.9748820662498474E+00
      0.9747866988182068E+00
      0.9747292995452881E+00
      0.9747092127799988E+00
      0.9747081398963928E+00
      0.9951184988021851E+00
      0.9951187372207642E+00
      0.9949491024017334E+00
      0.9945899844169617E+00
      0.9940884113311768E+00
      0.9934837222099304E+00
      0.9928051829338074E+00
      0.9920738935470581E+00
      0.9913054704666138E+00
      0.9905120730400085E+00
      0.9897025227546692E+00
      0.9888847470283508E+00
      0.9880648255348206E+00
      0.9872478246688843E+00
      0.9864385724067688E+00
      0.9856404066085815E+00
      0.9848572015762329E+00
      0.9840915799140930E+00
      0.9833461046218872E+00
      0.9826228618621826E+00
      0.9819234609603882E+00
      0.9812499880790710E+00
      0.9806039333343506E+00
      0.9799864292144775E+00
      0.9793989658355713E+00
      0.9788424372673035E+00
      0.9783176779747009E+00
      0.9778260588645935E+00
      0.9773677587509155E+00
      0.9769440889358521E+00
      0.9765552282333374E+00
      0.9762020707130432E+00
      0.9758847951889038E+00
      0.9756040573120117E+00
      0.9753598570823669E+00
      0.9751526713371277E+00
      0.9749823212623596E+00
      0.9748495817184448E+00
      0.9747542738914490E+00
      0.9746966361999512E+00
      0.9746767878532410E+00
      0.9746757149696350E+00
      0.9954515695571899E+00
      0.9954517483711243E+00
      0.9952430725097656E+00
      0.9948257803916931E+00
      0.9942677021026611E+00
      0.9936157464981079E+00
      0.9928987622261047E+00
      0.9921377301216125E+00
      0.9913459420204163E+00
      0.9905345439910889E+00
      0.9897108078002930E+00
      0.9888820052146912E+00
      0.9880535602569580E+00
      0.9872301816940308E+00
      0.9864158034324646E+00
      0.9856135845184326E+00
      0.9848273992538452E+00
      0.9840592741966248E+00
      0.9833117723464966E+00
      0.9825867414474487E+00
      0.9818863868713379E+00
      0.9812118411064148E+00
      0.9805647134780884E+00
      0.9799464941024780E+00
      0.9793583750724792E+00
      0.9788013100624084E+00
      0.9782760143280029E+00
      0.9777839779853821E+00
      0.9773252606391907E+00
      0.9769012331962585E+00
      0.9765121340751648E+00
      0.9761588573455811E+00
      0.9758411645889282E+00
      0.9755603075027466E+00
      0.9753157496452332E+00
      0.9751083254814148E+00
      0.9749380946159363E+00
      0.9748051166534424E+00
      0.9747097492218018E+00
      0.9746520519256592E+00
      0.9746321439743042E+00
      0.9746310710906982E+00
      0.9959096908569336E+00
      0.9959098100662231E+00
      0.9956293106079102E+00
      0.9951217174530029E+00
      0.9944853782653809E+00
      0.9937711358070374E+00
      0.9930060505867004E+00
      0.9922077655792236E+00
      0.9913874864578247E+00
      0.9905539751052856E+00
      0.9897132515907288E+00
      0.9888715744018555E+00
      0.9880329370498657E+00
      0.9872019290924072E+00
      0.9863817691802979E+00
      0.9855749607086182E+00
      0.9847855567932129E+00
      0.9840146303176880E+00
      0.9832651019096375E+00
      0.9825385808944702E+00
      0.9818367362022400E+00
      0.9811610579490662E+00
      0.9805132150650024E+00
      0.9798945188522339E+00
      0.9793058037757874E+00
      0.9787482619285583E+00
      0.9782226085662842E+00
      0.9777299165725708E+00
      0.9772711396217346E+00
      0.9768465757369995E+00
      0.9764573574066162E+00
      0.9761037826538086E+00
      0.9757859706878662E+00
      0.9755045175552368E+00
      0.9752599596977234E+00
      0.9750523567199707E+00
      0.9748818874359131E+00
      0.9747488498687744E+00
      0.9746536016464233E+00
      0.9745956063270569E+00
      0.9745756387710571E+00
      0.9745745658874512E+00
      0.9965342283248901E+00
      0.9965344071388245E+00
      0.9961130619049072E+00
      0.9954693913459778E+00
      0.9947301745414734E+00
      0.9939399957656860E+00
      0.9931185841560364E+00
      0.9922772049903870E+00
      0.9914241433143616E+00
      0.9905652999877930E+00
      0.9897055029869080E+00
      0.9888492226600647E+00
      0.9879997968673706E+00
      0.9871602654457092E+00
      0.9863339066505432E+00
      0.9855223894119263E+00
      0.9847295284271240E+00
      0.9839560985565186E+00
      0.9832045435905457E+00
      0.9824767112731934E+00
      0.9817737340927124E+00
      0.9810972809791565E+00
      0.9804488420486450E+00
      0.9798296689987183E+00
      0.9792405366897583E+00
      0.9786823391914368E+00
      0.9781564474105835E+00
      0.9776636958122253E+00
      0.9772046208381653E+00
      0.9767800569534302E+00
      0.9763906002044678E+00
      0.9760366082191467E+00
      0.9757186174392700E+00
      0.9754370450973511E+00
      0.9751921892166138E+00
      0.9749842882156372E+00
      0.9748138189315796E+00
      0.9746807217597961E+00
      0.9745853543281555E+00
      0.9745274782180786E+00
      0.9745072126388550E+00
      0.9745061397552490E+00
      0.9974035620689392E+00
      0.9974036812782288E+00
      0.9966858029365540E+00
      0.9958477616310120E+00
      0.9949845075607300E+00
      0.9941088557243347E+00
      0.9932254552841187E+00
      0.9923376441001892E+00
      0.9914492368698120E+00
      0.9905635118484497E+00
      0.9896834492683411E+00
      0.9888117313385010E+00
      0.9879509210586548E+00
      0.9871030449867249E+00
      0.9862703680992126E+00
      0.9854544401168823E+00
      0.9846581220626831E+00
      0.9838823080062866E+00
      0.9831292033195496E+00
      0.9824003577232361E+00
      0.9816964864730835E+00
      0.9810194373130798E+00
      0.9803707599639893E+00
      0.9797512292861938E+00
      0.9791619777679443E+00
      0.9786037802696228E+00
      0.9780779480934143E+00
      0.9775850176811218E+00
      0.9771258831024170E+00
      0.9767012596130371E+00
      0.9763116240501404E+00
      0.9759574532508850E+00
      0.9756394028663635E+00
      0.9753577113151550E+00
      0.9751126766204834E+00
      0.9749044775962830E+00
      0.9747338891029358E+00
      0.9746007323265076E+00
      0.9745051264762878E+00
      0.9744473099708557E+00
      0.9744270443916321E+00
      0.9744259715080261E+00
      0.1000000000000000E+01
      0.9986715316772461E+00
      0.9972895979881287E+00
      0.9962148666381836E+00
      0.9952228069305420E+00
      0.9942611455917358E+00
      0.9933148622512817E+00
      0.9923796653747559E+00
      0.9914554953575134E+00
      0.9905426502227783E+00
      0.9896421432495117E+00
      0.9887550473213196E+00
      0.9878830313682556E+00
      0.9870268702507019E+00
      0.9861884117126465E+00
      0.9853686094284058E+00
      0.9845693111419678E+00
      0.9837917685508728E+00
      0.9830376505851746E+00
      0.9823080301284790E+00
      0.9816039204597473E+00
      0.9809268712997437E+00
      0.9802783727645874E+00
      0.9796590805053711E+00
      0.9790697693824768E+00
      0.9785119891166687E+00
      0.9779862165451050E+00
      0.9774935245513916E+00
      0.9770345687866211E+00
      0.9766100049018860E+00
      0.9762203693389893E+00
      0.9758661985397339E+00
      0.9755481481552124E+00
      0.9752663969993591E+00
      0.9750210046768188E+00
      0.9748127460479736E+00
      0.9746420383453369E+00
      0.9745088815689087E+00
      0.9744131565093994E+00
      0.9743552803993225E+00
      0.9743351936340332E+00
      0.9743341207504272E+00
      0.1000000000000000E+01
      0.9991084337234497E+00
      0.9976966977119446E+00
      0.9965054988861084E+00
      0.9954159259796143E+00
      0.9943785667419434E+00
      0.9933736324310303E+00
      0.9923935532569885E+00
      0.9914351701736450E+00
      0.9904961585998535E+00
      0.9895764589309692E+00
      0.9886751770973206E+00
      0.9877930283546448E+00
      0.9869295954704285E+00
      0.9860861897468567E+00
      0.9852631092071533E+00
      0.9844622015953064E+00
      0.9836835861206055E+00
      0.9829289317131042E+00
      0.9821991920471191E+00
      0.9814955592155457E+00
      0.9808188676834106E+00
      0.9801708459854126E+00
      0.9795522689819336E+00
      0.9789636135101318E+00
      0.9784063100814819E+00
      0.9778813123703003E+00
      0.9773890376091003E+00
      0.9769303798675537E+00
      0.9765058755874634E+00
      0.9761165380477905E+00
      0.9757624864578247E+00
      0.9754445552825928E+00
      0.9751628041267395E+00
      0.9749173521995544E+00
      0.9747091531753540E+00
      0.9745385050773621E+00
      0.9744052290916443E+00
      0.9743093848228455E+00
      0.9742513895034790E+00
      0.9742314219474792E+00
      0.9742303490638733E+00
      0.1000000000000000E+01
      0.9992765188217163E+00
      0.9979341030120850E+00
      0.9966992139816284E+00
      0.9955443143844604E+00
      0.9944458603858948E+00
      0.9933902621269226E+00
      0.9923700094223022E+00
      0.9913805127143860E+00
      0.9904184937477112E+00
      0.9894815683364868E+00
      0.9885681867599487E+00
      0.9876773953437805E+00
      0.9868084788322449E+00
      0.9859615564346313E+00
      0.9851364493370056E+00
      0.9843348264694214E+00
      0.9835560321807861E+00
      0.9828016757965088E+00
      0.9820728302001953E+00
      0.9813700914382935E+00
      0.9806949496269226E+00
      0.9800480008125305E+00
      0.9794305562973022E+00
      0.9788430929183960E+00
      0.9782868623733521E+00
      0.9777627587318420E+00
      0.9772710800170898E+00
      0.9768132567405701E+00
      0.9763893485069275E+00
      0.9760003089904785E+00
      0.9756466150283813E+00
      0.9753288030624390E+00
      0.9750471711158752E+00
      0.9748019576072693E+00
      0.9745936393737793E+00
      0.9744228720664978E+00
      0.9742896556854248E+00
      0.9741938710212708E+00
      0.9741357564926147E+00
      0.9741156101226807E+00
      0.9741145372390747E+00
      0.1000000000000000E+01
      0.9993441104888916E+00
      0.9980528354644775E+00
      0.9967978000640869E+00
      0.9955977201461792E+00
      0.9944513440132141E+00
      0.9933540821075439E+00
      0.9923002719879150E+00
      0.9912849068641663E+00
      0.9903038740158081E+00
      0.9893532395362854E+00
      0.9884303808212280E+00
      0.9875332713127136E+00
      0.9866607785224915E+00
      0.9858120083808899E+00
      0.9849865436553955E+00
      0.9841853976249695E+00
      0.9834079742431641E+00
      0.9826551675796509E+00
      0.9819282293319702E+00
      0.9812274575233459E+00
      0.9805542230606079E+00
      0.9799092411994934E+00
      0.9792933464050293E+00
      0.9787077307701111E+00
      0.9781531095504761E+00
      0.9776303172111511E+00
      0.9771398305892944E+00
      0.9766828417778015E+00
      0.9762596487998962E+00
      0.9758713841438293E+00
      0.9755182266235352E+00
      0.9752007722854614E+00
      0.9749193191528320E+00
      0.9746742248535156E+00
      0.9744660258293152E+00
      0.9742953181266785E+00
      0.9741619825363159E+00
      0.9740662574768066E+00
      0.9740081429481506E+00
      0.9739880561828613E+00
      0.9739869832992554E+00
      0.1000000000000000E+01
      0.9993637800216675E+00
      0.9980855584144592E+00
      0.9968086481094360E+00
      0.9955712556838989E+00
      0.9943869113922119E+00
      0.9932566881179810E+00
      0.9921768307685852E+00
      0.9911420345306396E+00
      0.9901469349861145E+00
      0.9891873002052307E+00
      0.9882584810256958E+00
      0.9873583316802979E+00
      0.9864846467971802E+00
      0.9856356382369995E+00
      0.9848123788833618E+00
      0.9840132594108582E+00
      0.9832385182380676E+00
      0.9824885725975037E+00
      0.9817645549774170E+00
      0.9810667037963867E+00
      0.9803964495658875E+00
      0.9797540307044983E+00
      0.9791406989097595E+00
      0.9785571098327637E+00
      0.9780045747756958E+00
      0.9774836301803589E+00
      0.9769948124885559E+00
      0.9765391349792480E+00
      0.9761171340942383E+00
      0.9757296442985535E+00
      0.9753772020339966E+00
      0.9750601053237915E+00
      0.9747790694236755E+00
      0.9745343327522278E+00
      0.9743264317512512E+00
      0.9741556644439697E+00
      0.9740223288536072E+00
      0.9739266633987427E+00
      0.9738686680793762E+00
      0.9738486409187317E+00
      0.9738475084304810E+00
      0.1000000000000000E+01
      0.9993537664413452E+00
      0.9980479478836060E+00
      0.9967353343963623E+00
      0.9954614639282227E+00
      0.9942459464073181E+00
      0.9930912256240845E+00
      0.9919935464859009E+00
      0.9909467101097107E+00
      0.9899439215660095E+00
      0.9889798760414124E+00
      0.9880495667457581E+00
      0.9871498942375183E+00
      0.9862781167030334E+00
      0.9854321479797363E+00
      0.9846121668815613E+00
      0.9838172793388367E+00
      0.9830466508865356E+00
      0.9823009967803955E+00
      0.9815812110900879E+00
      0.9808877110481262E+00
      0.9802207350730896E+00
      0.9795819520950317E+00
      0.9789718985557556E+00
      0.9783912897109985E+00
      0.9778413176536560E+00
      0.9773226380348206E+00
      0.9768357276916504E+00
      0.9763817787170410E+00
      0.9759612679481506E+00
      0.9755750298500061E+00
      0.9752232432365417E+00
      0.9749069809913635E+00
      0.9746267199516296E+00
      0.9743822216987610E+00
      0.9741746187210083E+00
      0.9740040898323059E+00
      0.9738707542419434E+00
      0.9737750291824341E+00
      0.9737170934677124E+00
      0.9736969470977783E+00
      0.9736958742141724E+00
      0.1000000000000000E+01
      0.9993168711662292E+00
      0.9979421496391296E+00
      0.9965746998786926E+00
      0.9952625632286072E+00
      0.9940217137336731E+00
      0.9928513765335083E+00
      0.9917450547218323E+00
      0.9906942844390869E+00
      0.9896908998489380E+00
      0.9887283444404602E+00
      0.9878015518188477E+00
      0.9869060516357422E+00
      0.9860396981239319E+00
      0.9851993322372437E+00
      0.9843854904174805E+00
      0.9835963845252991E+00
      0.9828318357467651E+00
      0.9820920825004578E+00
      0.9813778400421143E+00
      0.9806893467903137E+00
      0.9800273180007935E+00
      0.9793927669525146E+00
      0.9787867069244385E+00
      0.9782097339630127E+00
      0.9776627421379089E+00
      0.9771469831466675E+00
      0.9766626954078674E+00
      0.9762107729911804E+00
      0.9757919907569885E+00
      0.9754073023796082E+00
      0.9750568270683289E+00
      0.9747415184974670E+00
      0.9744619727134705E+00
      0.9742178916931152E+00
      0.9740107655525208E+00
      0.9738403558731079E+00
      0.9737073183059692E+00
      0.9736114144325256E+00
      0.9735536575317383E+00
      0.9735333919525146E+00
      0.9735323190689087E+00
      0.1000000000000000E+01
      0.9992487430572510E+00
      0.9977576732635498E+00
      0.9963167905807495E+00
      0.9949657320976257E+00
      0.9937077164649963E+00
      0.9925323724746704E+00
      0.9914277195930481E+00
      0.9903819561004639E+00
      0.9893856644630432E+00
      0.9884309768676758E+00
      0.9875127673149109E+00
      0.9866259694099426E+00
      0.9857679605484009E+00
      0.9849370718002319E+00