# vtk DataFile Version 5.4
                      Uniform Nozzle Grid
ASCII
DATASET UNSTRUCTURED_GRID
POINTS  7644 float
   0.00   0.00 0
   0.00   1.25 0
   0.00   3.75 0
   0.00   6.25 0
   0.00   8.75 0
   0.00  11.25 0
   0.00  13.75 0
   0.00  16.25 0
   0.00  18.75 0
   0.00  21.25 0
   0.00  23.75 0
   0.00  26.25 0
   0.00  28.75 0
   0.00  31.25 0
   0.00  33.75 0
   0.00  36.25 0
   0.00  38.75 0
   0.00  41.25 0
   0.00  43.75 0
   0.00  46.25 0
   0.00  48.75 0
   0.00  51.25 0
   0.00  53.75 0
   0.00  56.25 0
   0.00  58.75 0
   0.00  61.25 0
   0.00  63.75 0
   0.00  66.25 0
   0.00  68.75 0
   0.00  71.25 0
   0.00  73.75 0
   0.00  76.25 0
   0.00  78.75 0
   0.00  81.25 0
   0.00  83.75 0
   0.00  86.25 0
   0.00  88.75 0
   0.00  91.25 0
   0.00  93.75 0
   0.00  96.25 0
   0.00  98.75 0
   0.00 100.00 0
   0.83   0.00 0
   0.83   1.25 0
   0.83   3.75 0
   0.83   6.25 0
   0.83   8.75 0
   0.83  11.25 0
   0.83  13.75 0
   0.83  16.25 0
   0.83  18.75 0
   0.83  21.25 0
   0.83  23.75 0
   0.83  26.25 0
   0.83  28.75 0
   0.83  31.25 0
   0.83  33.75 0
   0.83  36.25 0
   0.83  38.75 0
   0.83  41.25 0
   0.83  43.75 0
   0.83  46.25 0
   0.83  48.75 0
   0.83  51.25 0
   0.83  53.75 0
   0.83  56.25 0
   0.83  58.75 0
   0.83  61.25 0
   0.83  63.75 0
   0.83  66.25 0
   0.83  68.75 0
   0.83  71.25 0
   0.83  73.75 0
   0.83  76.25 0
   0.83  78.75 0
   0.83  81.25 0
   0.83  83.75 0
   0.83  86.25 0
   0.83  88.75 0
   0.83  91.25 0
   0.83  93.75 0
   0.83  96.25 0
   0.83  98.75 0
   0.83 100.00 0
   2.50   0.00 0
   2.50   1.25 0
   2.50   3.75 0
   2.50   6.25 0
   2.50   8.75 0
   2.50  11.25 0
   2.50  13.75 0
   2.50  16.25 0
   2.50  18.75 0
   2.50  21.25 0
   2.50  23.75 0
   2.50  26.25 0
   2.50  28.75 0
   2.50  31.25 0
   2.50  33.75 0
   2.50  36.25 0
   2.50  38.75 0
   2.50  41.25 0
   2.50  43.75 0
   2.50  46.25 0
   2.50  48.75 0
   2.50  51.25 0
   2.50  53.75 0
   2.50  56.25 0
   2.50  58.75 0
   2.50  61.25 0
   2.50  63.75 0
   2.50  66.25 0
   2.50  68.75 0
   2.50  71.25 0
   2.50  73.75 0
   2.50  76.25 0
   2.50  78.75 0
   2.50  81.25 0
   2.50  83.75 0
   2.50  86.25 0
   2.50  88.75 0
   2.50  91.25 0
   2.50  93.75 0
   2.50  96.25 0
   2.50  98.75 0
   2.50 100.00 0
   4.17   0.00 0
   4.17   1.25 0
   4.17   3.75 0
   4.17   6.25 0
   4.17   8.75 0
   4.17  11.25 0
   4.17  13.75 0
   4.17  16.25 0
   4.17  18.75 0
   4.17  21.25 0
   4.17  23.75 0
   4.17  26.25 0
   4.17  28.75 0
   4.17  31.25 0
   4.17  33.75 0
   4.17  36.25 0
   4.17  38.75 0
   4.17  41.25 0
   4.17  43.75 0
   4.17  46.25 0
   4.17  48.75 0
   4.17  51.25 0
   4.17  53.75 0
   4.17  56.25 0
   4.17  58.75 0
   4.17  61.25 0
   4.17  63.75 0
   4.17  66.25 0
   4.17  68.75 0
   4.17  71.25 0
   4.17  73.75 0
   4.17  76.25 0
   4.17  78.75 0
   4.17  81.25 0
   4.17  83.75 0
   4.17  86.25 0
   4.17  88.75 0
   4.17  91.25 0
   4.17  93.75 0
   4.17  96.25 0
   4.17  98.75 0
   4.17 100.00 0
   5.83   0.00 0
   5.83   1.25 0
   5.83   3.75 0
   5.83   6.25 0
   5.83   8.75 0
   5.83  11.25 0
   5.83  13.75 0
   5.83  16.25 0
   5.83  18.75 0
   5.83  21.25 0
   5.83  23.75 0
   5.83  26.25 0
   5.83  28.75 0
   5.83  31.25 0
   5.83  33.75 0
   5.83  36.25 0
   5.83  38.75 0
   5.83  41.25 0
   5.83  43.75 0
   5.83  46.25 0
   5.83  48.75 0
   5.83  51.25 0
   5.83  53.75 0
   5.83  56.25 0
   5.83  58.75 0
   5.83  61.25 0
   5.83  63.75 0
   5.83  66.25 0
   5.83  68.75 0
   5.83  71.25 0
   5.83  73.75 0
   5.83  76.25 0
   5.83  78.75 0
   5.83  81.25 0
   5.83  83.75 0
   5.83  86.25 0
   5.83  88.75 0
   5.83  91.25 0
   5.83  93.75 0
   5.83  96.25 0
   5.83  98.75 0
   5.83 100.00 0
   7.50   0.00 0
   7.50   1.25 0
   7.50   3.75 0
   7.50   6.25 0
   7.50   8.75 0
   7.50  11.25 0
   7.50  13.75 0
   7.50  16.25 0
   7.50  18.75 0
   7.50  21.25 0
   7.50  23.75 0
   7.50  26.25 0
   7.50  28.75 0
   7.50  31.25 0
   7.50  33.75 0
   7.50  36.25 0
   7.50  38.75 0
   7.50  41.25 0
   7.50  43.75 0
   7.50  46.25 0
   7.50  48.75 0
   7.50  51.25 0
   7.50  53.75 0
   7.50  56.25 0
   7.50  58.75 0
   7.50  61.25 0
   7.50  63.75 0
   7.50  66.25 0
   7.50  68.75 0
   7.50  71.25 0
   7.50  73.75 0
   7.50  76.25 0
   7.50  78.75 0
   7.50  81.25 0
   7.50  83.75 0
   7.50  86.25 0
   7.50  88.75 0
   7.50  91.25 0
   7.50  93.75 0
   7.50  96.25 0
   7.50  98.75 0
   7.50 100.00 0
   9.17   0.00 0
   9.17   1.25 0
   9.17   3.75 0
   9.17   6.25 0
   9.17   8.75 0
   9.17  11.25 0
   9.17  13.75 0
   9.17  16.25 0
   9.17  18.75 0
   9.17  21.25 0
   9.17  23.75 0
   9.17  26.25 0
   9.17  28.75 0
   9.17  31.25 0
   9.17  33.75 0
   9.17  36.25 0
   9.17  38.75 0
   9.17  41.25 0
   9.17  43.75 0
   9.17  46.25 0
   9.17  48.75 0
   9.17  51.25 0
   9.17  53.75 0
   9.17  56.25 0
   9.17  58.75 0
   9.17  61.25 0
   9.17  63.75 0
   9.17  66.25 0
   9.17  68.75 0
   9.17  71.25 0
   9.17  73.75 0
   9.17  76.25 0
   9.17  78.75 0
   9.17  81.25 0
   9.17  83.75 0
   9.17  86.25 0
   9.17  88.75 0
   9.17  91.25 0
   9.17  93.75 0
   9.17  96.25 0
   9.17  98.75 0
   9.17 100.00 0
  10.83   0.00 0
  10.83   1.25 0
  10.83   3.75 0
  10.83   6.25 0
  10.83   8.75 0
  10.83  11.25 0
  10.83  13.75 0
  10.83  16.25 0
  10.83  18.75 0
  10.83  21.25 0
  10.83  23.75 0
  10.83  26.25 0
  10.83  28.75 0
  10.83  31.25 0
  10.83  33.75 0
  10.83  36.25 0
  10.83  38.75 0
  10.83  41.25 0
  10.83  43.75 0
  10.83  46.25 0
  10.83  48.75 0
  10.83  51.25 0
  10.83  53.75 0
  10.83  56.25 0
  10.83  58.75 0
  10.83  61.25 0
  10.83  63.75 0
  10.83  66.25 0
  10.83  68.75 0
  10.83  71.25 0
  10.83  73.75 0
  10.83  76.25 0
  10.83  78.75 0
  10.83  81.25 0
  10.83  83.75 0
  10.83  86.25 0
  10.83  88.75 0
  10.83  91.25 0
  10.83  93.75 0
  10.83  96.25 0
  10.83  98.75 0
  10.83 100.00 0
  12.50   0.00 0
  12.50   1.25 0
  12.50   3.75 0
  12.50   6.25 0
  12.50   8.75 0
  12.50  11.25 0
  12.50  13.75 0
  12.50  16.25 0
  12.50  18.75 0
  12.50  21.25 0
  12.50  23.75 0
  12.50  26.25 0
  12.50  28.75 0
  12.50  31.25 0
  12.50  33.75 0
  12.50  36.25 0
  12.50  38.75 0
  12.50  41.25 0
  12.50  43.75 0
  12.50  46.25 0
  12.50  48.75 0
  12.50  51.25 0
  12.50  53.75 0
  12.50  56.25 0
  12.50  58.75 0
  12.50  61.25 0
  12.50  63.75 0
  12.50  66.25 0
  12.50  68.75 0
  12.50  71.25 0
  12.50  73.75 0
  12.50  76.25 0
  12.50  78.75 0
  12.50  81.25 0
  12.50  83.75 0
  12.50  86.25 0
  12.50  88.75 0
  12.50  91.25 0
  12.50  93.75 0
  12.50  96.25 0
  12.50  98.75 0
  12.50 100.00 0
  14.17   0.00 0
  14.17   1.25 0
  14.17   3.75 0
  14.17   6.25 0
  14.17   8.75 0
  14.17  11.25 0
  14.17  13.75 0
  14.17  16.25 0
  14.17  18.75 0
  14.17  21.25 0
  14.17  23.75 0
  14.17  26.25 0
  14.17  28.75 0
  14.17  31.25 0
  14.17  33.75 0
  14.17  36.25 0
  14.17  38.75 0
  14.17  41.25 0
  14.17  43.75 0
  14.17  46.25 0
  14.17  48.75 0
  14.17  51.25 0
  14.17  53.75 0
  14.17  56.25 0
  14.17  58.75 0
  14.17  61.25 0
  14.17  63.75 0
  14.17  66.25 0
  14.17  68.75 0
  14.17  71.25 0
  14.17  73.75 0
  14.17  76.25 0
  14.17  78.75 0
  14.17  81.25 0
  14.17  83.75 0
  14.17  86.25 0
  14.17  88.75 0
  14.17  91.25 0
  14.17  93.75 0
  14.17  96.25 0
  14.17  98.75 0
  14.17 100.00 0
  15.83   0.00 0
  15.83   1.25 0
  15.83   3.75 0
  15.83   6.25 0
  15.83   8.75 0
  15.83  11.25 0
  15.83  13.75 0
  15.83  16.25 0
  15.83  18.75 0
  15.83  21.25 0
  15.83  23.75 0
  15.83  26.25 0
  15.83  28.75 0
  15.83  31.25 0
  15.83  33.75 0
  15.83  36.25 0
  15.83  38.75 0
  15.83  41.25 0
  15.83  43.75 0
  15.83  46.25 0
  15.83  48.75 0
  15.83  51.25 0
  15.83  53.75 0
  15.83  56.25 0
  15.83  58.75 0
  15.83  61.25 0
  15.83  63.75 0
  15.83  66.25 0
  15.83  68.75 0
  15.83  71.25 0
  15.83  73.75 0
  15.83  76.25 0
  15.83  78.75 0
  15.83  81.25 0
  15.83  83.75 0
  15.83  86.25 0
  15.83  88.75 0
  15.83  91.25 0
  15.83  93.75 0
  15.83  96.25 0
  15.83  98.75 0
  15.83 100.00 0
  17.50   0.00 0
  17.50   1.25 0
  17.50   3.75 0
  17.50   6.25 0
  17.50   8.75 0
  17.50  11.25 0
  17.50  13.75 0
  17.50  16.25 0
  17.50  18.75 0
  17.50  21.25 0
  17.50  23.75 0
  17.50  26.25 0
  17.50  28.75 0
  17.50  31.25 0
  17.50  33.75 0
  17.50  36.25 0
  17.50  38.75 0
  17.50  41.25 0
  17.50  43.75 0
  17.50  46.25 0
  17.50  48.75 0
  17.50  51.25 0
  17.50  53.75 0
  17.50  56.25 0
  17.50  58.75 0
  17.50  61.25 0
  17.50  63.75 0
  17.50  66.25 0
  17.50  68.75 0
  17.50  71.25 0
  17.50  73.75 0
  17.50  76.25 0
  17.50  78.75 0
  17.50  81.25 0
  17.50  83.75 0
  17.50  86.25 0
  17.50  88.75 0
  17.50  91.25 0
  17.50  93.75 0
  17.50  96.25 0
  17.50  98.75 0
  17.50 100.00 0
  19.17   0.00 0
  19.17   1.25 0
  19.17   3.75 0
  19.17   6.25 0
  19.17   8.75 0
  19.17  11.25 0
  19.17  13.75 0
  19.17  16.25 0
  19.17  18.75 0
  19.17  21.25 0
  19.17  23.75 0
  19.17  26.25 0
  19.17  28.75 0
  19.17  31.25 0
  19.17  33.75 0
  19.17  36.25 0
  19.17  38.75 0
  19.17  41.25 0
  19.17  43.75 0
  19.17  46.25 0
  19.17  48.75 0
  19.17  51.25 0
  19.17  53.75 0
  19.17  56.25 0
  19.17  58.75 0
  19.17  61.25 0
  19.17  63.75 0
  19.17  66.25 0
  19.17  68.75 0
  19.17  71.25 0
  19.17  73.75 0
  19.17  76.25 0
  19.17  78.75 0
  19.17  81.25 0
  19.17  83.75 0
  19.17  86.25 0
  19.17  88.75 0
  19.17  91.25 0
  19.17  93.75 0
  19.17  96.25 0
  19.17  98.75 0
  19.17 100.00 0
  20.83   0.00 0
  20.83   1.25 0
  20.83   3.75 0
  20.83   6.25 0
  20.83   8.75 0
  20.83  11.25 0
  20.83  13.75 0
  20.83  16.25 0
  20.83  18.75 0
  20.83  21.25 0
  20.83  23.75 0
  20.83  26.25 0
  20.83  28.75 0
  20.83  31.25 0
  20.83  33.75 0
  20.83  36.25 0
  20.83  38.75 0
  20.83  41.25 0
  20.83  43.75 0
  20.83  46.25 0
  20.83  48.75 0
  20.83  51.25 0
  20.83  53.75 0
  20.83  56.25 0
  20.83  58.75 0
  20.83  61.25 0
  20.83  63.75 0
  20.83  66.25 0
  20.83  68.75 0
  20.83  71.25 0
  20.83  73.75 0
  20.83  76.25 0
  20.83  78.75 0
  20.83  81.25 0
  20.83  83.75 0
[...]
POINT_DATA 7644
SCALARS SPECIE_A float 1
LOOKUP_TABLE default
      0.0000000000000000E+00
      0.0000000000000000E+00
      0.0000000000000000E+00
      0.0000000000000000E+00
      0.0000000000000000E+00
      0.0000000000000000E+00
      0.0000000000000000E+00
      0.0000000000000000E+00
      0.0000000000000000E+00
      0.0000000000000000E+00
      0.0000000000000000E+00
      0.0000000000000000E+00
      0.0000000000000000E+00
      0.0000000000000000E+00
      0.0000000000000000E+00
      0.0000000000000000E+00
      0.0000000000000000E+00
      0.0000000000000000E+00
      0.0000000000000000E+00
      0.0000000000000000E+00
      0.0000000000000000E+00
      0.0000000000000000E+00
      0.0000000000000000E+00
      0.0000000000000000E+00
      0.0000000000000000E+00
      0.0000000000000000E+00
      0.0000000000000000E+00
      0.0000000000000000E+00
      0.0000000000000000E+00
      0.0000000000000000E+00
      0.0000000000000000E+00
      0.0000000000000000E+00
      0.0000000000000000E+00
      0.0000000000000000E+00
      0.0000000000000000E+00
      0.0000000000000000E+00
      0.0000000000000000E+00
      0.0000000000000000E+00
      0.0000000000000000E+00
      0.0000000000000000E+00
      0.0000000000000000E+00
      0.0000000000000000E+00
      0.3436709344387054E+00
      0.3436709344387054E+00
      0.3401381671428680E+00
      0.3325719535350800E+00
      0.3218189775943756E+00
      0.3087947666645050E+00
      0.2943376600742340E+00
      0.2791348993778229E+00
      0.2637085616588593E+00
      0.2484339773654938E+00
      0.2335673868656158E+00
      0.2192759811878204E+00
      0.2056610882282257E+00
      0.1927781403064728E+00
      0.1806509941816330E+00
      0.1692821532487869E+00
      0.1586601585149765E+00
      0.1487647444009781E+00
      0.1395705789327621E+00
      0.1310493946075439E+00
      0.1231718212366104E+00
      0.1159083247184753E+00
      0.1092300713062286E+00
      0.1031096428632736E+00
      0.9752327203750610E-01
      0.9244600683450699E-01
      0.8785279840230942E-01
      0.8371906727552414E-01
      0.8002120256423950E-01
      0.7673660665750504E-01
      0.7384340465068817E-01
      0.7132077962160110E-01
      0.6914847344160080E-01
      0.6730691343545914E-01
      0.6577697396278381E-01
      0.6453969329595566E-01
      0.6357588618993759E-01
      0.6286565959453583E-01
      0.6238774210214615E-01
      0.6211832910776138E-01
      0.6202597916126251E-01
      0.6202597916126251E-01
      0.3598202168941498E+00
      0.3598202168941498E+00
      0.3558875024318695E+00
      0.3477082550525665E+00
      0.3361932337284088E+00
      0.3223357498645782E+00
      0.3070358335971832E+00
      0.2910147011280060E+00
      0.2748114168643951E+00
      0.2588066756725311E+00
      0.2432577610015869E+00
      0.2283302247524261E+00
      0.2141228616237640E+00
      0.2006888687610626E+00
      0.1880494058132172E+00
      0.1762046366930008E+00
      0.1651409715414047E+00
      0.1548360735177994E+00
      0.1452626734972000E+00
      0.1363910138607025E+00
      0.1281901001930237E+00
      0.1206289380788803E+00
      0.1136772483587265E+00
      0.1073061078786850E+00
      0.1014915257692337E+00
      0.9620757400989532E-01
      0.9142788499593735E-01
      0.8712688833475113E-01
      0.8327993005514145E-01
      0.7986339181661606E-01
      0.7685454934835434E-01
      0.7423164695501328E-01
      0.7197374850511551E-01
      0.7006043940782547E-01
      0.6847188621759415E-01
      0.6718841195106506E-01
      0.6619014590978622E-01
      0.6545664370059967E-01
      0.6496605277061462E-01
      0.6469507515430450E-01
      0.6461609899997711E-01
      0.6461609899997711E-01
      0.3790659308433533E+00
      0.3790659308433533E+00
      0.3744224905967712E+00
      0.3651092350482941E+00
      0.3523019850254059E+00
      0.3371466100215912E+00
      0.3206289708614349E+00
      0.3035066425800323E+00
      0.2863214313983917E+00
      0.2694435715675354E+00
      0.2531150281429291E+00
      0.2374863922595978E+00
      0.2226443886756897E+00
      0.2086319327354431E+00
      0.1954628825187683E+00
      0.1831314414739609E+00
      0.1716195493936539E+00
      0.1609012931585312E+00
      0.1509467214345932E+00
      0.1417236477136612E+00
      0.1331991106271744E+00
      0.1253403872251511E+00
      0.1181156337261200E+00
      0.1114942282438278E+00
      0.1054521054029465E+00
      0.9996289014816284E-01
      0.9499879181385040E-01
      0.9053284674882889E-01
      0.8653948456048965E-01
      0.8299412578344345E-01
      0.7987315207719803E-01
      0.7715398818254471E-01
      0.7481481134891510E-01
      0.7283458858728409E-01
      0.7119270414113998E-01
      0.6986895948648453E-01
      0.6884303689002991E-01
      0.6809421628713608E-01
      0.6760098785161972E-01
      0.6734099984169006E-01
      0.6728165596723557E-01
      0.6728165596723557E-01
      0.4017717242240906E+00
      0.4017717242240906E+00
      0.3960738182067871E+00
      0.3849757313728333E+00
      0.3702051639556885E+00
      0.3531906902790070E+00
      0.3350303471088409E+00
      0.3165034353733063E+00
      0.2981294095516205E+00
      0.2802420556545258E+00
      0.2630469501018524E+00
      0.2466640174388885E+00
      0.2311559319496155E+00
      0.2165480256080627E+00
      0.2028411924839020E+00
      0.1900200843811035E+00
      0.1780601292848587E+00
      0.1669306010007858E+00
      0.1565976887941360E+00
      0.1470263749361038E+00
      0.1381814777851105E+00
      0.1300283670425415E+00
      0.1225336045026779E+00
      0.1156649142503738E+00
      0.1093980818986893E+00
      0.1037066578865051E+00
      0.9856136143207550E-01
      0.9393417835235596E-01
      0.8979829400777817E-01
      0.8612821251153946E-01
      0.8289949595928192E-01
      0.8008862286806107E-01
      0.7767321914434433E-01
      0.7563146203756332E-01
      0.7394211739301682E-01
      0.7258447259664536E-01
      0.7153788954019547E-01
      0.7078165560960770E-01
      0.7029431313276291E-01
      0.7005149871110916E-01
      0.7000835984945297E-01
      0.7000835984945297E-01
      0.4285115599632263E+00
      0.4285115599632263E+00
      0.4212442636489868E+00
      0.4074919819831848E+00
      0.3899077177047729E+00
      0.3703645765781403E+00
      0.3500903546810150E+00
      0.3298477232456207E+00
      0.3100890815258026E+00
      0.2910740077495575E+00
      0.2729445993900299E+00
      0.2557714581489563E+00
      0.2395811975002289E+00
      0.2243733704090118E+00
      0.2101308405399323E+00
      0.1968261897563934E+00
      0.1844259053468704E+00
      0.1728931516408920E+00
      0.1621899455785751E+00
      0.1522779911756516E+00
      0.1431197375059128E+00
      0.1346787214279175E+00
      0.1269198358058929E+00
      0.1198093742132187E+00
      0.1133225262165070E+00
      0.1074337363243103E+00
      0.1021120846271515E+00
      0.9732836484909058E-01
      0.9305486828088760E-01
      0.8926505595445633E-01
      0.8593367785215378E-01
      0.8303651958703995E-01
      0.8055040985345840E-01
      0.7845292240381241E-01
      0.7672215253114700E-01
      0.7533701509237289E-01
      0.7427649945020676E-01
      0.7351929694414139E-01
      0.7304290682077408E-01
      0.7281767576932907E-01
      0.7278534024953842E-01
      0.7278534024953842E-01
      0.4601896405220032E+00
      0.4601896405220032E+00
      0.4504499435424805E+00
      0.4327729940414429E+00
      0.4112816452980042E+00
      0.3884381651878357E+00
      0.3655610680580139E+00
      0.3433136045932770E+00
      0.3220088183879852E+00
      0.3017825782299042E+00
      0.2826810777187347E+00
      0.2647061944007874E+00
      0.2478370368480682E+00
      0.2320403158664703E+00
      0.2172768414020538E+00
      0.2035042941570282E+00
      0.1906791627407074E+00
      0.1787579506635666E+00
      0.1676978617906570E+00
      0.1574574857950211E+00
      0.1479967385530472E+00
      0.1392774730920792E+00
      0.1312630772590637E+00
      0.1239188164472580E+00
      0.1172189563512802E+00
      0.1111392080783844E+00
      0.1056473851203918E+00
      0.1007131636142731E+00
      0.9630785882472992E-01
      0.9240413457155228E-01
      0.8897589892148972E-01
      0.8599827438592911E-01
      0.8344734460115433E-01
      0.8130001276731491E-01
      0.7953392714262009E-01
      0.7812718302011490E-01
      0.7705817371606827E-01
      0.7630439847707748E-01
      0.7584059983491898E-01
      0.7563041895627975E-01
      0.7560396939516068E-01
      0.7560396939516068E-01
      0.4982805848121643E+00
      0.4982805848121643E+00
      0.4843199849128723E+00
      0.4607552886009216E+00
      0.4339591264724731E+00
      0.4069829583168030E+00
      0.3810585737228394E+00
      0.3565899729728699E+00
      0.3336472213268280E+00
      0.3121818006038666E+00
      0.2921129167079926E+00
      0.2733567953109741E+00
      0.2558356821537018E+00
      0.2394789755344391E+00
      0.2242227196693420E+00
      0.2100086510181427E+00
      0.1967825293540955E+00
      0.1844943016767502E+00
      0.1730962544679642E+00
      0.1625439971685410E+00
      0.1527953594923019E+00
      0.1438107043504715E+00
      0.1355524510145187E+00
      0.1279846727848053E+00
      0.1210806667804718E+00
      0.1148180812597275E+00
      0.1091636866331100E+00
      0.1040861159563065E+00
      0.9955579042434692E-01
      0.9554469585418701E-01
      0.9202601760625839E-01
      0.8897403627634048E-01
      0.8636425435543060E-01
      0.8417295664548874E-01
      0.8237691968679428E-01
      0.8095363527536392E-01
      0.7988015562295914E-01
      0.7913219183683395E-01
      0.7868038862943649E-01
      0.7848138362169266E-01
      0.7845716923475266E-01
      0.7845716923475266E-01
      0.5453277230262756E+00
      0.5453277230262756E+00
      0.5234802365303040E+00
      0.4909507036209106E+00
      0.4571599364280701E+00
      0.4252872467041016E+00
      0.3960312008857727E+00
      0.3692738115787506E+00
      0.3447131216526031E+00
      0.3220609724521637E+00
      0.3010849058628082E+00
      0.2816064059734344E+00
      0.2634874284267426E+00
      0.2466190159320831E+00
      0.2309125512838364E+00
      0.2162941098213196E+00
      0.2026996314525604E+00
      0.1900722384452820E+00
      0.1783606708049774E+00
      0.1675175577402115E+00
      0.1574995070695877E+00
      0.1482654064893723E+00
      0.1397772580385208E+00
      0.1319986730813980E+00
      0.1249013245105743E+00
      0.1184656620025635E+00
      0.1126574873924255E+00
      0.1074446886777878E+00
      0.1027970165014267E+00
      0.9868563711643219E-01
      0.9508313238620758E-01
      0.9196313470602036E-01
      0.8930045366287231E-01
      0.8707063645124435E-01
      0.8524956554174423E-01
      0.8381361514329910E-01
      0.8273834735155106E-01
      0.8199664205312729E-01
      0.8155489712953568E-01
      0.8136326819658279E-01
      0.8133875578641891E-01
      0.8133875578641891E-01
      0.6060441136360168E+00
      0.6060441136360168E+00
      0.5680449604988098E+00
      0.5218995809555054E+00
      0.4794258475303650E+00
      0.4422745704650879E+00
      0.4097548723220825E+00
      0.3808862566947937E+00
      0.3548855483531952E+00
      0.3311983644962311E+00
      0.3094393908977509E+00
      0.2893395125865936E+00
      0.2707049548625946E+00
      0.2533927857875824E+00
      0.2372931241989136E+00
      0.2223182022571564E+00
      0.2083957493305206E+00
      0.1954637765884399E+00
      0.1834679096937180E+00
      0.1723592430353165E+00
      0.1620933860540390E+00
      0.1526289135217667E+00
      0.1439275294542313E+00
      0.1359526962041855E+00
      0.1286746859550476E+00
      0.1220771074295044E+00
      0.1161251366138458E+00
      0.1107861995697021E+00
      0.1060293018817902E+00
      0.1018252372741699E+00
      0.9814584255218506E-01
      0.9496422111988068E-01
      0.9225437790155411E-01
      0.8999096602201462E-01
      0.8814895898103714E-01
      0.8670332282781601E-01
      0.8562753349542618E-01
      0.8489156514406204E-01
      0.8445727080106735E-01
      0.8426952362060547E-01
      0.8424314111471176E-01
      0.8424314111471176E-01
      0.6887454986572266E+00
      0.6887454986572266E+00
      0.6149907708168030E+00
      0.5499417185783386E+00
      0.4982850551605225E+00
      0.4565042853355408E+00
      0.4213971495628357E+00
      0.3909251689910889E+00
      0.3638453185558319E+00
      0.3393808901309967E+00
      0.3170276582241058E+00
      0.2964479625225067E+00
      0.2774077951908112E+00
      0.2597387433052063E+00
      0.2433157265186310E+00
      0.2280418872833252E+00
      0.2138391435146332E+00
      0.2006428241729736E+00
      0.1883967518806458E+00
      0.1770516186952591E+00
      0.1665628403425217E+00
      0.1568894535303116E+00
      0.1479934602975845E+00
      0.1398390978574753E+00
      0.1323948204517365E+00
      0.1256477236747742E+00
      0.1195629835128784E+00
      0.1141075938940048E+00
      0.1092503368854523E+00
      0.1049614101648331E+00
      0.1012122035026550E+00
      0.9797514975070953E-01
      0.9522350132465363E-01
      0.9293089061975479E-01
      0.9107130020856857E-01
      0.8961791545152664E-01
      0.8854205161333084E-01
      0.8781055361032486E-01
      0.8738102763891220E-01
      0.8719446510076523E-01
      0.8716510981321335E-01
      0.8716510981321335E-01
      0.1000000000000000E+01
      0.8042193651199341E+00
      0.6516452431678772E+00
      0.5673624873161316E+00
      0.5103782415390015E+00
      0.4664767384529114E+00
      0.4301992654800415E+00
      0.3989589810371399E+00
      0.3713248074054718E+00
      0.3464312255382538E+00
      0.3237257301807404E+00
      0.3028417527675629E+00
      0.2835274636745453E+00
      0.2656036913394928E+00
      0.2489383816719055E+00
      0.2334310412406921E+00
      0.2190022468566895E+00
      0.2055864334106445E+00
      0.1931281685829163E+00
      0.1815787404775620E+00
      0.1708947569131851E+00
      0.1610362976789474E+00
      0.1519664078950882E+00
      0.1436503678560257E+00
      0.1360558867454529E+00
      0.1291728317737579E+00
      0.1229670792818069E+00
      0.1174056679010391E+00
      0.1124572157859802E+00
      0.1080915480852127E+00
      0.1042796075344086E+00
      0.1009930819272995E+00
      0.9820462763309479E-01
      0.9588682651519775E-01
      0.9401226043701172E-01
      0.9255240112543106E-01
      0.9147623926401138E-01
      0.9074749797582626E-01
      0.9032020717859268E-01
      0.9013252705335617E-01
      0.9009959548711777E-01
      0.9009959548711777E-01
      0.7042487263679504E+00
      0.7042487263679504E+00
      0.6306864619255066E+00
      0.5654980540275574E+00
      0.5136302709579468E+00
      0.4713973999023438E+00
      0.4357457756996155E+00
      0.4047358632087708E+00
      0.3771561980247498E+00
      0.3522307574748993E+00
      0.3294462859630585E+00
      0.3084544241428375E+00
      0.2890122830867767E+00
      0.2709459066390991E+00
      0.2541269659996033E+00
      0.2384579479694366E+00
      0.2238616645336151E+00
      0.2102753818035126E+00
      0.1976458877325058E+00
      0.1859270483255386E+00
      0.1750775128602982E+00
      0.1650594621896744E+00
      0.1558378785848618E+00
      0.1473795324563980E+00
      0.1396526843309402E+00
      0.1326477676630020E+00
      0.1263334751129150E+00
      0.1206769943237305E+00
      0.1156468093395233E+00
      0.1112125962972641E+00
      0.1073447763919830E+00
      0.1040147393941879E+00
      0.1011940240859985E+00
      0.9885439276695251E-01
      0.9696701169013977E-01
      0.9550148248672485E-01
      0.9442435204982758E-01
      0.9369658678770065E-01
      0.9326937049627304E-01
      0.9307900816202164E-01
      0.9304205328226089E-01
      0.9304205328226089E-01
      0.6375034451484680E+00
      0.6375034451484680E+00
      0.5996133685112000E+00
      0.5530512928962708E+00
      0.5098084211349487E+00
      0.4716867804527283E+00
      0.4381255209445953E+00
      0.4082450866699219E+00
      0.3813002109527588E+00
      0.3567344844341278E+00
      0.3341467082500458E+00
      0.3132478296756744E+00
      0.2938292324542999E+00
      0.2757375240325928E+00
      0.2588577866554260E+00
      0.2431018948554993E+00
      0.2283996641635895E+00
      0.2146938741207123E+00
      0.2019363939762115E+00
      0.1900847554206848E+00
      0.1791011244058609E+00
      0.1689507514238358E+00
      0.1596008688211441E+00
      0.1510204821825027E+00
      0.1431796401739120E+00
      0.1360678821802139E+00
      0.1296581476926804E+00
      0.1239178478717804E+00
      0.1188155412673950E+00
      0.1143209785223007E+00
      0.1104042828083038E+00
      0.1070361733436584E+00
      0.1041875928640366E+00
      0.1018291860818863E+00
      0.9993055462837219E-01
      0.9845966100692749E-01
      0.9738089144229889E-01
      0.9665252268314362E-01
      0.9622344374656677E-01
      0.9602913260459900E-01
      0.9598800539970398E-01
      0.9598800539970398E-01
      0.5906488299369812E+00
      0.5906488299369812E+00
      0.5693807005882263E+00
      0.5364549756050110E+00
      0.5016292333602905E+00
      0.4684404134750366E+00
      0.4377920031547546E+00
      0.4096773862838745E+00
      0.3838337063789368E+00
      0.3599689304828644E+00
      0.3378299772739410E+00
      0.3172145187854767E+00
      0.2979660928249359E+00
      0.2799645960330963E+00
      0.2631165385246277E+00
      0.2473491728305817E+00
      0.2326034307479858E+00
      0.2188307344913483E+00
      0.2059895098209381E+00
      0.1940429508686066E+00
      0.1829576939344406E+00
      0.1727028787136078E+00
      0.1632491201162338E+00
      0.1545678526163101E+00
      0.1466314941644669E+00
      0.1394287198781967E+00
      0.1329369246959686E+00
      0.1271242797374725E+00
      0.1219597607851028E+00
      0.1174130439758301E+00
      0.1134541034698486E+00
      0.1100533604621887E+00
      0.1071808636188507E+00
      0.1048062890768051E+00
      0.1028978973627090E+00
      0.1014218628406525E+00
      0.1003405600786209E+00
      0.9961010515689850E-01
      0.9917782247066498E-01
      0.9897866845130920E-01
      0.9893321990966797E-01
      0.9893321990966797E-01
      0.5555792450904846E+00
      0.5555792450904846E+00
      0.5425209403038025E+00
      0.5188835263252258E+00
      0.4911357760429382E+00
      0.4627782702445984E+00
      0.4353318214416504E+00
      0.4093388319015503E+00
      0.3849167227745056E+00
      0.3620163500308990E+00
      0.3405372500419617E+00
      0.3203732669353485E+00
      0.3014297187328339E+00
      0.2836266756057739E+00
      0.2668991982936859E+00
      0.2511938214302063E+00
      0.2364664077758789E+00
      0.2226788103580475E+00
      0.2097982466220856E+00
      0.1977948993444443E+00
      0.1866409480571747E+00
      0.1763101369142532E+00
      0.1667771190404892E+00
      0.1580165773630142E+00
      0.1500036269426346E+00
      0.1427260488271713E+00
      0.1361659318208694E+00
      0.1302925646305084E+00
      0.1250755190849304E+00
      0.1204847693443298E+00
      0.1164902895689011E+00
      0.1130619794130325E+00
      0.1101693660020828E+00
      0.1077810078859329E+00
      0.1058639734983444E+00
      0.1043829470872879E+00
      0.1032983660697937E+00
      0.1025647073984146E+00
      0.1021280288696289E+00
      0.1019234359264374E+00
      0.1018737405538559E+00
      0.1018737405538559E+00
      0.5278897881507874E+00
      0.5278897881507874E+00
      0.5191994309425354E+00
      0.5017892122268677E+00
      0.4796383380889893E+00
      0.4556051492691040E+00
      0.4313111901283264E+00
      0.4075706601142883E+00
      0.3847525119781494E+00
      0.3629977405071259E+00
      0.3423402607440948E+00
      0.3227654993534088E+00
      0.3042427599430084E+00
      0.2867359817028046E+00
      0.2702111303806305E+00