# vtk DataFile Version 5.1
vtk output
ASCII
DATASET STRUCTURED_GRID
DIMENSIONS 99450 1 1
POINTS 99450 float
31 41 0 31 40 0 31 39 0 
31 38 0 31 37 0 31 36 0 
31 35 0 31 34 0 31 33 0 
31 32 0 31 31 0 31 30 0 
31 29 0 31 28 0 31 27 0 
31 26 0 31 25 0 31 24 0 
31 23 0 31 22 0 31 21 0 
31 20 0 31 19 0 31 18 0 
31 17 0 31 16 0 31 15 0 
31 14 0 31 13 0 31 12 0 
31 11 0 31 10 0 31 9 0 
31 8 0 31 7 0 31 6 0 
31 5 0 31 4 0 31 3 0 
31 2 0 31 1 0 31 0 0 
31 -1 0 31 -2 0 31 -3 0 
31 -4 0 31 -5 0 31 -6 0 
31 -7 0 31 -8 0 31 -9 0 
31 -10 0 31 -11 0 31 -12 0 
31 -13 0 31 -14 0 31 -15 0 
31 -16 0 31 -17 0 31 -18 0 
31 -19 0 31 -20 0 31 -21 0 
31 -22 0 31 -23 0 31 -24 0 
31 -25 0 31 -26 0 31 -27 0 
31 -28 0 31 -29 0 31 -30 0 
31 -31 0 31 -32 0 31 -33 0 
31 -34 0 31 -35 0 31 -36 0 
31 -37 0 31 -38 0 31 -39 0 
31 -40 0 31 -41 0 31 -42 0 
31 -43 0 30 41 0 30 40 0 
30 39 0 30 38 0 30 37 0 
30 36 0 30 35 0 30 34 0 
30 33 0 30 32 0 30 31 0 
30 30 0 30 29 0 30 28 0 
30 27 0 30 26 0 30 25 0 
30 24 0 30 23 0 30 22 0 
30 21 0 30 20 0 30 19 0 
30 18 0 30 17 0 30 16 0 
30 15 0 30 14 0 30 13 0 
30 12 0 30 11 0 30 10 0 
30 9 0 30 8 0 30 7 0 
30 6 0 30 5 0 30 4 0 
30 3 0 30 2 0 30 1 0 
30 0 0 30 -1 0 30 -2 0 
30 -3 0 30 -4 0 30 -5 0 
30 -6 0 30 -7 0 30 -8 0 
30 -9 0 30 -10 0 30 -11 0 
30 -12 0 30 -13 0 30 -14 0 
30 -15 0 30 -16 0 30 -17 0 
30 -18 0 30 -19 0 30 -20 0 
30 -21 0 30 -22 0 30 -23 0 
30 -24 0 30 -25 0 30 -26 0 
30 -27 0 30 -28 0 30 -29 0 
30 -30 0 30 -31 0 30 -32 0 
30 -33 0 30 -34 0 30 -35 0 
30 -36 0 30 -37 0 30 -38 0 
30 -39 0 30 -40 0 30 -41 0 
30 -42 0 30 -43 0 29 41 0 
29 40 0 29 39 0 29 38 0 
29 37 0 29 36 0 29 35 0 
29 34 0 29 33 0 29 32 0 
29 31 0 29 30 0 29 29 0 
29 28 0 29 27 0 29 26 0 
29 25 0 29 24 0 29 23 0 
29 22 0 29 21 0 29 20 0 
29 19 0 29 18 0 29 17 0 
29 16 0 29 15 0 29 14 0 
29 13 0 29 12 0 29 11 0 
29 10 0 29 9 0 29 8 0 
29 7 0 29 6 0 29 5 0 
29 4 0 29 3 0 29 2 0 
29 1 0 29 0 0 29 -1 0 
29 -2 0 29 -3 0 29 -4 0 
29 -5 0 29 -6 0 29 -7 0 
29 -8 0 29 -9 0 29 -10 0 
29 -11 0 29 -12 0 29 -13 0 
29 -14 0 29 -15 0 29 -16 0 
29 -17 0 29 -18 0 29 -19 0 
29 -20 0 29 -21 0 29 -22 0 
29 -23 0 29 -24 0 29 -25 0 
29 -26 0 29 -27 0 29 -28 0 
29 -29 0 29 -30 0 29 -31 0 
29 -32 0 29 -33 0 29 -34 0 
29 -35 0 29 -36 0 29 -37 0 
29 -38 0 29 -39 0 29 -40 0 
29 -41 0 29 -42 0 29 -43 0 
28 41 0 28 40 0 28 39 0 
28 38 0 28 37 0 28 36 0 
28 35 0 28 34 0 28 33 0 
28 32 0 28 31 0 28 30 0 
28 29 0 28 28 0 28 27 0 
28 26 0 28 25 0 28 24 0 
28 23 0 28 22 0 28 21 0 
28 20 0 28 19 0 28 18 0 
28 17 0 28 16 0 28 15 0 
28 14 0 28 13 0 28 12 0 
28 11 0 28 10 0 28 9 0 
28 8 0 28 7 0 28 6 0 
28 5 0 28 4 0 28 3 0 
28 2 0 28 1 0 28 0 0 
28 -1 0 28 -2 0 28 -3 0 
28 -4 0 28 -5 0 28 -6 0 
28 -7 0 28 -8 0 28 -9 0 
28 -10 0 28 -11 0 28 -12 0 
28 -13 0 28 -14 0 28 -15 0 
28 -16 0 28 -17 0 28 -18 0 
28 -19 0 28 -20 0 28 -21 0 
28 -22 0 28 -23 0 28 -24 0 
28 -25 0 28 -26 0 28 -27 0 
28 -28 0 28 -29 0 28 -30 0 
28 -31 0 28 -32 0 28 -33 0 
28 -34 0 28 -35 0 28 -36 0 
28 -37 0 28 -38 0 28 -39 0 
28 -40 0 28 -41 0 28 -42 0 
28 -43 0 27 41 0 27 40 0 
27 39 0 27 38 0 27 37 0 
27 36 0 27 35 0 27 34 0 
27 33 0 27 32 0 27 31 0 
27 30 0 27 29 0 27 28 0 
27 27 0 27 26 0 27 25 0 
27 24 0 27 23 0 27 22 0 
27 21 0 27 20 0 27 19 0 
27 18 0 27 17 0 27 16 0 
27 15 0 27 14 0 27 13 0 
27 12 0 27 11 0 27 10 0 
27 9 0 27 8 0 27 7 0 
27 6 0 27 5 0 27 4 0 
27 3 0 27 2 0 27 1 0 
27 0 0 27 -1 0 27 -2 0 
27 -3 0 27 -4 0 27 -5 0 
27 -6 0 27 -7 0 27 -8 0 
27 -9 0 27 -10 0 27 -11 0 
27 -12 0 27 -13 0 27 -14 0 
27 -15 0 27 -16 0 27 -17 0 
27 -18 0 27 -19 0 27 -20 0 
27 -21 0 27 -22 0 27 -23 0 
27 -24 0 27 -25 0 27 -26 0 
27 -27 0 27 -28 0 27 -29 0 
27 -30 0 27 -31 0 27 -32 0 
27 -33 0 27 -34 0 27 -35 0 
27 -36 0 27 -37 0 27 -38 0 
27 -39 0 27 -40 0 27 -41 0 
27 -42 0 27 -43 0 26 41 0 
26 40 0 26 39 0 26 38 0 
26 37 0 26 36 0 26 35 0 
26 34 0 26 33 0 26 32 0 
26 31 0 26 30 0 26 29 0 
26 28 0 26 27 0 26 26 0 
26 25 0 26 24 0 26 23 0 
26 22 0 26 21 0 26 20 0 
26 19 0 26 18 0 26 17 0 
26 16 0 26 15 0 26 14 0 
26 13 0 26 12 0 26 11 0 
26 10 0 26 9 0 26 8 0 
26 7 0 26 6 0 26 5 0 
26 4 0 26 3 0 26 2 0 
26 1 0 26 0 0 26 -1 0 
26 -2 0 26 -3 0 26 -4 0 
26 -5 0 26 -6 0 26 -7 0 
26 -8 0 26 -9 0 26 -10 0 
26 -11 0 26 -12 0 26 -13 0 
26 -14 0 26 -15 0 26 -16 0 
26 -17 0 26 -18 0 26 -19 0 
26 -20 0 26 -21 0 26 -22 0 
26 -23 0 26 -24 0 26 -25 0 
26 -26 0 26 -27 0 26 -28 0 
26 -29 0 26 -30 0 26 -31 0 
26 -32 0 26 -33 0 26 -34 0 
26 -35 0 26 -36 0 26 -37 0 
26 -38 0 26 -39 0 26 -40 0 
26 -41 0 26 -42 0 26 -43 0 
25 41 0 25 40 0 25 39 0 
25 38 0 25 37 0 25 36 0 
25 35 0 25 34 0 25 33 0 
25 32 0 25 31 0 25 30 0 
25 29 0 25 28 0 25 27 0 
25 26 0 25 25 0 25 24 0 
25 23 0 25 22 0 25 21 0 
25 20 0 25 19 0 25 18 0 
25 17 0 25 16 0 25 15 0 
25 14 0 25 13 0 25 12 0 
25 11 0 25 10 0 25 9 0 
25 8 0 25 7 0 25 6 0 
25 5 0 25 4 0 25 3 0 
25 2 0 25 1 0 25 0 0 
25 -1 0 25 -2 0 25 -3 0 
25 -4 0 25 -5 0 25 -6 0 
25 -7 0 25 -8 0 25 -9 0 
25 -10 0 25 -11 0 25 -12 0 
25 -13 0 25 -14 0 25 -15 0 
25 -16 0 25 -17 0 25 -18 0 
25 -19 0 25 -20 0 25 -21 0 
25 -22 0 25 -23 0 25 -24 0 
25 -25 0 25 -26 0 25 -27 0 
25 -28 0 25 -29 0 25 -30 0 
25 -31 0 25 -32 0 25 -33 0 
25 -34 0 25 -35 0 25 -36 0 
25 -37 0 25 -38 0 25 -39 0 
25 -40 0 25 -41 0 25 -42 0 
25 -43 0 24 41 0 24 40 0 
24 39 0 24 38 0 24 37 0 
24 36 0 24 35 0 24 34 0 
24 33 0 24 32 0 24 31 0 
24 30 0 24 29 0 24 28 0 
24 27 0 24 26 0 24 25 0 
24 24 0 24 23 0 24 22 0 
24 21 0 24 20 0 24 19 0 
24 18 0 24 17 0 24 16 0 
24 15 0 24 14 0 24 13 0 
24 12 0 24 11 0 24 10 0 
24 9 0 24 8 0 24 7 0 
24 6 0 24 5 0 24 4 0 
24 3 0 24 2 0 24 1 0 
24 0 0 24 -1 0 24 -2 0 
24 -3 0 24 -4 0 24 -5 0 
24 -6 0 24 -7 0 24 -8 0 
24 -9 0 24 -10 0 24 -11 0 
24 -12 0 24 -13 0 24 -14 0 
24 -15 0 24 -16 0 24 -17 0 
24 -18 0 24 -19 0 24 -20 0 
24 -21 0 24 -22 0 24 -23 0 
24 -24 0 24 -25 0 24 -26 0 
24 -27 0 24 -28 0 24 -29 0 
24 -30 0 24 -31 0 24 -32 0 
24 -33 0 24 -34 0 24 -35 0 
24 -36 0 24 -37 0 24 -38 0 
24 -39 0 24 -40 0 24 -41 0 
24 -42 0 24 -43 0 23 41 0 
23 40 0 23 39 0 23 38 0 
23 37 0 23 36 0 23 35 0 
23 34 0 23 33 0 23 32 0 
23 31 0 23 30 0 23 29 0 
23 28 0 23 27 0 23 26 0 
23 25 0 23 24 0 23 23 0 
23 22 0 23 21 0 23 20 0 
23 19 0 23 18 0 23 17 0 
23 16 0 23 15 0 23 14 0 
23 13 0 23 12 0 23 11 0 
23 10 0 23 9 0 23 8 0 
23 7 0 23 6 0 23 5 0 
23 4 0 23 3 0 23 2 0 
23 1 0 23 0 0 23 -1 0 
23 -2 0 23 -3 0 23 -4 0 
23 -5 0 23 -6 0 23 -7 0 
23 -8 0 23 -9 0 23 -10 0 
23 -11 0 23 -12 0 23 -13 0 
23 -14 0 23 -15 0 23 -16 0 
23 -17 0 23 -18 0 23 -19 0 
23 -20 0 23 -21 0 23 -22 0 
23 -23 0 23 -24 0 23 -25 0 
23 -26 0 23 -27 0 23 -28 0 
23 -29 0 23 -30 0 23 -31 0 
23 -32 0 23 -33 0 23 -34 0 
23 -35 0 23 -36 0 23 -37 0 
23 -38 0 23 -39 0 23 -40 0 
23 -41 0 23 -42 0 23 -43 0 
22 41 0 22 40 0 22 39 0 
22 38 0 22 37 0 22 36 0 
22 35 0 22 34 0 22 33 0 
22 32 0 22 31 0 22 30 0 
22 29 0 22 28 0 22 27 0 
22 26 0 22 25 0 22 24 0 
22 23 0 22 22 0 22 21 0 
22 20 0 22 19 0 22 18 0 
22 17 0 22 16 0 22 15 0 
22 14 0 22 13 0 22 12 0 
22 11 0 22 10 0 22 9 0 
22 8 0 22 7 0 22 6 0 
22 5 0 22 4 0 22 3 0 
22 2 0 22 1 0 22 0 0 
22 -1 0 22 -2 0 22 -3 0 
22 -4 0 22 -5 0 22 -6 0 
22 -7 0 22 -8 0 22 -9 0 
22 -10 0 22 -11 0 22 -12 0 
22 -13 0 22 -14 0 22 -15 0 
22 -16 0 22 -17 0 22 -18 0 
22 -19 0 22 -20 0 22 -21 0 
22 -22 0 22 -23 0 22 -24 0 
22 -25 0 22 -26 0 22 -27 0 
22 -28 0 22 -29 0 22 -30 0 
22 -31 0 22 -32 0 22 -33 0 
22 -34 0 22 -35 0 22 -36 0 
22 -37 0 22 -38 0 22 -39 0 
22 -40 0 22 -41 0 22 -42 0 
22 -43 0 21 41 0 21 40 0 
21 39 0 21 38 0 21 37 0 
21 36 0 21 35 0 21 34 0 
21 33 0 21 32 0 21 31 0 
21 30 0 21 29 0 21 28 0 
21 27 0 21 26 0 21 25 0 
21 24 0 21 23 0 21 22 0 
21 21 0 21 20 0 21 19 0 
21 18 0 21 17 0 21 16 0 
21 15 0 21 14 0 21 13 0 
21 12 0 21 11 0 21 10 0 
21 9 0 21 8 0 21 7 0 
21 6 0 21 5 0 21 4 0 
21 3 0 21 2 0 21 1 0 
21 0 0 21 -1 0 21 -2 0 
21 -3 0 21 -4 0 21 -5 0 
21 -6 0 21 -7 0 21 -8 0 
21 -9 0 21 -10 0 21 -11 0 
21 -12 0 21 -13 0 21 -14 0 
21 -15 0 21 -16 0 21 -17 0 
21 -18 0 21 -19 0 21 -20 0 
21 -21 0 21 -22 0 21 -23 0 
21 -24 0 21 -25 0 21 -26 0 
21 -27 0 21 -28 0 21 -29 0 
21 -30 0 21 -31 0 21 -32 0 
21 -33 0 21 -34 0 21 -35 0 
21 -36 0 21 -37 0 21 -38 0 
21 -39 0 21 -40 0 21 -41 0 
21 -42 0 21 -43 0 20 41 0 
20 40 0 20 39 0 20 38 0 
20 37 0 20 36 0 20 35 0 
20 34 0 20 33 0 20 32 0 
20 31 0 20 30 0 20 29 0 
20 28 0 20 27 0 20 26 0 
20 25 0 20 24 0 20 23 0 
20 22 0 20 21 0 20 20 0 
20 19 0 20 18 0 20 17 0 
20 16 0 20 15 0 20 14 0 
20 13 0 20 12 0 20 11 0 
20 10 0 20 9 0 20 8 0 
20 7 0 20 6 0 20 5 0 
20 4 0 20 3 0 20 2 0 
20 1 0 20 0 0 20 -1 0 
20 -2 0 20 -3 0 20 -4 0 
20 -5 0 20 -6 0 20 -7 0 
20 -8 0 20 -9 0 20 -10 0 
20 -11 0 20 -12 0 20 -13 0 
20 -14 0 20 -15 0 20 -16 0 
20 -17 0 20 -18 0 20 -19 0 
20 -20 0 20 -21 0 20 -22 0 
20 -23 0 20 -24 0 20 -25 0 
20 -26 0 20 -27 0 20 -28 0 
20 -29 0 20 -30 0 20 -31 0 
20 -32 0 20 -33 0 20 -34 0 
20 -35 0 20 -36 0 20 -37 0 
20 -38 0 20 -39 0 20 -40 0 
20 -41 0 20 -42 0 20 -43 0 
19 41 0 19 40 0 19 39 0 
19 38 0 19 37 0 19 36 0 
19 35 0 19 34 0 19 33 0 
19 32 0 19 31 0 19 30 0 
19 29 0 19 28 0 19 27 0 
19 26 0 19 25 0 19 24 0 
19 23 0 19 22 0 19 21 0 
19 20 0 19 19 0 19 18 0 
19 17 0 19 16 0 19 15 0 
19 14 0 19 13 0 19 12 0 
19 11 0 19 10 0 19 9 0 
19 8 0 19 7 0 19 6 0 
19 5 0 19 4 0 19 3 0 
19 2 0 19 1 0 19 0 0 
19 -1 0 19 -2 0 19 -3 0 
19 -4 0 19 -5 0 19 -6 0 
19 -7 0 19 -8 0 19 -9 0 
19 -10 0 19 -11 0 19 -12 0 
19 -13 0 19 -14 0 19 -15 0 
19 -16 0 19 -17 0 19 -18 0 
19 -19 0 19 -20 0 19 -21 0 
19 -22 0 19 -23 0 19 -24 0 
19 -25 0 19 -26 0 19 -27 0 
19 -28 0 19 -29 0 19 -30 0 
19 -31 0 19 -32 0 19 -33 0 
19 -34 0 19 -35 0 19 -36 0 
19 -37 0 19 -38 0 19 -39 0 
19 -40 0 19 -41 0 19 -42 0 
19 -43 0 18 41 0 18 40 0 
18 39 0 18 38 0 18 37 0 
18 36 0 18 35 0 18 34 0 
18 33 0 18 32 0 18 31 0 
18 30 0 18 29 0 18 28 0 
18 27 0 18 26 0 18 25 0 
18 24 0 18 23 0 18 22 0 
18 21 0 18 20 0 18 19 0 
18 18 0 18 17 0 18 16 0 
18 15 0 18 14 0 18 13 0 
18 12 0 18 11 0 18 10 0 
18 9 0 18 8 0 18 7 0 
18 6 0 18 5 0 18 4 0 
18 3 0 18 2 0 18 1 0 
18 0 0 18 -1 0 18 -2 0 
[...]
POINT_DATA 99450
FIELD FieldData 1
Scalars 1 99450 double
0 0 7.1719e-38 1.3456e-35 1.6859e-33 1.4043e-31 7.7435e-30 2.8172e-28 6.7503e-27 
1.0667e-25 1.1189e-24 7.9088e-24 3.8702e-23 1.3655e-22 3.6565e-22 7.8488e-22 1.4193e-21 2.2483e-21 
3.3023e-21 4.7269e-21 6.585e-21 8.9172e-21 1.1637e-20 1.4642e-20 1.7923e-20 2.1325e-20 2.4642e-20 
2.7637e-20 3.0078e-20 3.1765e-20 3.2566e-20 3.2426e-20 3.1374e-20 2.9517e-20 2.7014e-20 2.4063e-20 
2.0874e-20 1.7646e-20 1.4548e-20 1.1705e-20 9.1993e-21 7.0702e-21 5.3212e-21 3.929e-21 2.8526e-21 
2.0422e-21 1.4465e-21 1.0174e-21 7.1333e-22 5.0031e-22 3.5193e-22 2.4858e-22 1.7623e-22 1.2518e-22 
8.8833e-23 6.2788e-23 4.408e-23 3.0678e-23 2.1151e-23 1.4459e-23 9.8265e-24 6.6681e-24 4.5458e-24 
3.1353e-24 2.2024e-24 1.5828e-24 1.1649e-24 8.4666e-25 5.8914e-25 3.8259e-25 2.2072e-25 1.0565e-25 
3.9889e-26 1.3573e-26 7.707e-27 8.4128e-27 9.6801e-27 6.2225e-27 1.3099e-27 1.1721e-28 5.3777e-30 
1.4716e-31 3.0451e-33 1.5318e-34 1.5318e-34 0 0 7.1719e-38 1.3456e-35 1.6859e-33 
1.4043e-31 7.7435e-30 2.8172e-28 6.7503e-27 1.0667e-25 1.1189e-24 7.9088e-24 3.8702e-23 1.3655e-22 
3.6565e-22 7.8488e-22 1.4193e-21 2.2483e-21 3.3023e-21 4.7269e-21 6.585e-21 8.9172e-21 1.1637e-20 
1.4642e-20 1.7923e-20 2.1325e-20 2.4642e-20 2.7637e-20 3.0078e-20 3.1765e-20 3.2566e-20 3.2426e-20 
3.1374e-20 2.9517e-20 2.7014e-20 2.4063e-20 2.0874e-20 1.7646e-20 1.4548e-20 1.1705e-20 9.1993e-21 
7.0702e-21 5.3212e-21 3.929e-21 2.8526e-21 2.0422e-21 1.4465e-21 1.0174e-21 7.1333e-22 5.0031e-22 
3.5193e-22 2.4858e-22 1.7623e-22 1.2518e-22 8.8833e-23 6.2788e-23 4.408e-23 3.0678e-23 2.1151e-23 
1.4459e-23 9.8265e-24 6.6681e-24 4.5458e-24 3.1353e-24 2.2024e-24 1.5828e-24 1.1649e-24 8.4666e-25 
5.8914e-25 3.8259e-25 2.2072e-25 1.0565e-25 3.9889e-26 1.3573e-26 7.707e-27 8.4128e-27 9.6801e-27 
6.2225e-27 1.3099e-27 1.1721e-28 5.3777e-30 1.4716e-31 3.0451e-33 1.5318e-34 1.5318e-34 2.9325e-38 
2.9325e-38 7.6969e-36 1.3621e-33 1.6044e-31 1.252e-29 6.4432e-28 2.1789e-26 4.8328e-25 7.0425e-24 
6.7951e-23 4.4192e-22 2.0003e-21 6.6147e-21 1.6975e-20 3.5938e-20 6.5967e-20 1.0835e-19 1.669e-19 
2.5302e-19 3.7378e-19 5.3362e-19 7.2685e-19 9.4503e-19 1.1835e-18 1.4221e-18 1.6341e-18 1.7929e-18 
1.8787e-18 1.8835e-18 1.8128e-18 1.6824e-18 1.5131e-18 1.3244e-18 1.1317e-18 9.4656e-19 7.7737e-19 
6.2917e-19 5.0321e-19 3.981e-19 3.1137e-19 2.405e-19 1.8328e-19 1.3778e-19 1.0222e-19 7.4961e-20 
5.4442e-20 3.9259e-20 2.8189e-20 2.0207e-20 1.4492e-20 1.0412e-20 7.4943e-21 5.3988e-21 3.8852e-21 
2.7868e-21 1.9879e-21 1.4079e-21 9.8936e-22 6.901e-22 4.7873e-22 3.3143e-22 2.301e-22 1.6112e-22 
1.1444e-22 8.2811e-23 6.1157e-23 4.4535e-23 3.1085e-23 2.0379e-23 1.2023e-23 5.9949e-24 2.407e-24 
8.8291e-25 5.2611e-25 5.8513e-25 6.8635e-25 4.6556e-25 1.057e-25 1.0192e-26 5.0114e-28 1.4581e-29 
3.1569e-31 1.6032e-32 1.6032e-32 1.7171e-36 1.7171e-36 4.245e-34 7.0457e-32 7.7554e-30 5.6326e-28 
2.6858e-26 8.3755e-25 1.7057e-23 2.2775e-22 2.0233e-21 1.2393e-20 5.6175e-20 2.0875e-19 6.8786e-19 
2.0137e-18 5.0673e-18 1.0766e-17 2.0167e-17 3.5706e-17 5.8909e-17 9.0276e-17 1.2812e-16 1.705e-16 
2.1606e-16 2.598e-16 2.9519e-16 3.1615e-16 3.1902e-16 3.037e-16 2.7353e-16 2.3409e-16 1.9121e-16 
1.4944e-16 1.1162e-16 7.9469e-17 5.3962e-17 3.5201e-17 2.2377e-17 1.4123e-17 9.0136e-18 5.8939e-18 
3.9695e-18 2.7484e-18 1.9445e-18 1.3958e-18 1.0104e-18 7.3464e-19 5.3526e-19 3.9051e-19 2.8527e-19 
2.0869e-19 1.5284e-19 1.1197e-19 8.194e-20 5.9804e-20 4.3461e-20 3.1412e-20 2.2571e-20 1.6132e-20 
1.1487e-20 8.1703e-21 5.8239e-21 4.1757e-21 3.0222e-21 2.2141e-21 1.6445e-21 1.1981e-21 8.3352e-22 
5.4587e-22 3.2564e-22 1.6778e-22 7.1474e-23 2.8384e-23 1.7875e-23 2.0289e-23 2.4261e-23 1.7385e-23 
4.2744e-24 4.4617e-25 2.3623e-26 7.3405e-28 1.6703e-29 8.6237e-31 8.6237e-31 4.0947e-35 4.0947e-35 
9.5236e-33 1.4823e-30 1.5249e-28 1.0316e-26 4.5699e-25 1.3229e-23 2.5262e-22 3.3089e-21 3.285e-20 
2.8765e-19 2.333e-18 1.5669e-17 7.8805e-17 2.9153e-16 8.1926e-16 1.8259e-15 3.4844e-15 6.1761e-15 
1.0058e-14 1.5046e-14 2.0696e-14 2.6671e-14 3.2801e-14 3.8446e-14 4.2755e-14 4.4953e-14 4.4635e-14 
4.1909e-14 3.733e-14 3.1678e-14 2.5688e-14 1.989e-14 1.4623e-14 1.0133e-14 6.588e-15 4.0206e-15 
2.3172e-15 1.2736e-15 6.7503e-16 3.4903e-16 1.7827e-16 9.1308e-17 4.7763e-17 2.6024e-17 1.5004e-17 
9.2085e-18 5.9858e-18 4.0748e-18 2.8705e-18 2.0723e-18 1.5217e-18 1.1299e-18 8.4414e-19 6.3222e-19 
4.7378e-19 3.553e-19 2.6719e-19 2.0209e-19 1.5408e-19 1.1838e-19 9.1342e-20 7.0367e-20 5.3787e-20 
4.0613e-20 3.0245e-20 2.1456e-20 1.4019e-20 8.3866e-21 4.5801e-21 2.2471e-21 9.6591e-22 4.0834e-22 
2.7526e-22 3.2193e-22 3.9352e-22 2.9769e-22 7.899e-23 8.8942e-24 5.058e-25 1.6787e-26 4.0416e-28 
2.1817e-29 2.1817e-29 4.3322e-34 4.3322e-34 9.5438e-32 1.4059e-29 1.3697e-27 8.8296e-26 3.8132e-24 
1.1575e-22 2.8177e-21 6.3727e-20 1.2968e-18 2.0293e-17 2.2104e-16 1.6317e-15 8.2736e-15 2.989e-14 
8.1088e-14 1.7542e-13 3.2827e-13 5.7136e-13 9.1051e-13 1.3239e-12 1.7556e-12 2.1692e-12 2.554e-12 
2.8796e-12 3.1067e-12 3.1993e-12 3.1401e-12 2.9406e-12 2.6332e-12 2.2587e-12 1.8537e-12 1.4479e-12 
1.0675e-12 7.375e-13 4.7616e-13 2.8822e-13 1.6477e-13 8.9732e-14 4.6903e-14 2.3669e-14 1.1593e-14 
5.549e-15 2.6216e-15 1.2393e-15 5.9598e-16 2.9648e-16 1.547e-16 8.5545e-17 5.0556e-17 3.2135e-17 
2.1962e-17 1.596e-17 1.2106e-17 9.4258e-18 7.4781e-18 6.0628e-18 5.0631e-18 4.3719e-18 3.8749e-18 
3.463e-18 3.0551e-18 2.6124e-18 2.1386e-18 1.6652e-18 1.231e-18 8.2846e-19 4.771e-19 2.2615e-19 
8.699e-20 2.8437e-20 8.8466e-21 3.2404e-21 2.188e-21 2.6247e-21 3.2794e-21 2.6042e-21 7.3832e-22 
8.8796e-23 5.378e-24 1.8964e-25 4.8419e-27 2.807e-28 2.807e-28 2.4948e-33 2.4948e-33 5.2977e-31 
7.6108e-29 7.4999e-27 5.4365e-25 3.3075e-23 1.8664e-21 9.0298e-20 3.2336e-18 7.8819e-17 1.2679e-15 
1.3394e-14 9.4145e-14 4.5328e-13 1.5463e-12 3.8962e-12 7.8784e-12 1.4195e-11 2.4407e-11 3.8618e-11 
5.5657e-11 7.2609e-11 8.7279e-11 9.8843e-11 1.0672e-10 1.108e-10 1.1116e-10 1.0786e-10 1.0115e-10 
9.135e-11 7.9026e-11 6.5006e-11 5.0445e-11 3.6677e-11 2.4909e-11 1.5917e-11 9.6693e-12 5.6153e-12 
3.1293e-12 1.6761e-12 8.6445e-13 4.3062e-13 2.0863e-13 9.944e-14 4.7368e-14 2.2943e-14 1.1467e-14 
5.9697e-15 3.2575e-15 1.8791e-15 1.1613e-15 7.7659e-16 5.5923e-16 4.2522e-16 3.3456e-16 2.7034e-16 
2.2594e-16 1.9763e-16 1.8121e-16 1.7134e-16 1.6253e-16 1.5061e-16 1.3369e-16 1.1239e-16 8.8992e-17 
6.6248e-17 4.4398e-17 2.4897e-17 1.0981e-17 3.5908e-18 8.4624e-19 1.4976e-19 2.6162e-20 1.1163e-20 
1.2785e-20 1.6219e-20 1.3381e-20 3.9999e-21 5.0731e-22 3.2347e-23 1.2003e-24 3.2341e-26 2.0349e-27 
2.0349e-27 9.6686e-33 9.6686e-33 2.1087e-30 3.48e-28 4.9703e-26 6.6943e-24 7.5361e-22 6.1486e-20 
3.3875e-18 1.2259e-16 2.8761e-15 4.342e-14 4.2265e-13 2.7138e-12 1.2097e-11 3.805e-11 8.5067e-11 
1.4101e-10 1.8971e-10 3.0515e-10 4.906e-10 7.3323e-10 1.0066e-09 1.2786e-09 1.5244e-09 1.7086e-09 
1.8024e-09 1.7908e-09 1.6774e-09 1.4827e-09 1.2376e-09 9.7636e-10 7.282e-10 5.1329e-10 3.4214e-10 
2.1978e-10 1.6702e-10 1.1803e-10 7.7734e-11 4.7594e-11 2.7346e-11 1.4964e-11 7.8286e-12 3.9604e-12 
1.9701e-12 9.8288e-13 5.013e-13 2.648e-13 1.4556e-13 8.336e-14 5.001e-14 3.1812e-14 2.1686e-14 
1.5797e-14 1.2091e-14 9.5646e-15 7.7934e-15 6.6181e-15 5.9415e-15 5.6344e-15 5.5217e-15 5.4163e-15 
5.1694e-15 4.7094e-15 4.0513e-15 3.2738e-15 2.4795e-15 1.6866e-15 9.5439e-16 4.1902e-16 1.329e-16 
2.8955e-17 4.2603e-18 4.4447e-19 5.9628e-20 4.3764e-20 5.4908e-20 4.6564e-20 1.4496e-20 1.9158e-21 
1.2714e-22 4.9113e-24 1.3833e-25 9.3918e-27 9.3918e-27 3.2962e-32 3.2962e-32 9.7712e-30 2.7767e-27 
7.004e-25 1.3419e-22 1.7212e-20 1.4339e-18 7.7069e-17 2.6595e-15 5.8356e-14 8.0262e-13 6.8503e-12 
3.7035e-11 1.4694e-10 3.5607e-10 9.7601e-10 2.0984e-09 3.886e-09 6.69e-09 1.0651e-08 1.5697e-08 
2.1247e-08 2.6617e-08 3.127e-08 3.4503e-08 3.5802e-08 3.4974e-08 3.2195e-08 2.7948e-08 2.2892e-08 
1.7699e-08 1.2919e-08 8.9023e-09 5.7905e-09 3.555e-09 2.047e-09 1.1308e-09 5.9873e-10 3.0793e-10 
1.8665e-10 1.1316e-10 6.4757e-11 3.5513e-11 1.9149e-11 1.0375e-11 5.7527e-12 3.2974e-12 1.9542e-12 
1.1942e-12 7.5495e-13 4.9949e-13 3.4985e-13 2.5941e-13 2.0121e-13 1.6143e-13 1.3419e-13 1.1731e-13 
1.0929e-13 1.0783e-13 1.0965e-13 1.1111e-13 1.0916e-13 1.0218e-13 9.0236e-14 7.4785e-14 5.7977e-14 
4.0346e-14 2.3316e-14 1.0393e-14 3.3083e-15 7.0893e-16 9.9259e-17 9.0428e-18 6.1299e-19 1.327e-19 
1.4249e-19 1.2242e-19 3.9311e-20 5.3653e-21 3.6739e-22 1.4644e-23 4.272e-25 3.0919e-26 3.0919e-26 
1.5227e-31 1.5227e-31 7.5767e-29 3.1312e-26 9.3606e-24 1.8983e-21 2.4355e-19 1.975e-17 1.0157e-15 
3.307e-14 6.7402e-13 8.3685e-12 6.1382e-11 2.3686e-10 1.3023e-09 5.1537e-09 1.46e-08 3.1635e-08 
5.8009e-08 9.8428e-08 1.5418e-07 2.2305e-07 2.9606e-07 3.6369e-07 4.188e-07 4.5294e-07 4.6084e-07 
4.4179e-07 3.995e-07 3.4106e-07 2.7508e-07 2.0968e-07 1.5105e-07 1.0282e-07 6.6103e-08 4.0124e-08 
2.2977e-08 1.2428e-08 6.3626e-09 3.0908e-09 1.4156e-09 6.3864e-10 2.917e-10 1.7524e-10 1.0014e-10 
5.8453e-11 3.5252e-11 2.2023e-11 1.4143e-11 9.2571e-12 6.1818e-12 4.263e-12 3.0787e-12 2.3389e-12 
1.8578e-12 1.5349e-12 1.3272e-12 1.2189e-12 1.197e-12 1.239e-12 1.3102e-12 1.3705e-12 1.3849e-12 
1.3319e-12 1.2084e-12 1.0285e-12 8.1774e-13 5.8412e-13 3.4712e-13 1.5915e-13 5.1929e-14 1.1287e-14 
1.5733e-15 1.3817e-16 7.8646e-18 5.7406e-19 3.2028e-19 2.632e-19 8.6266e-20 1.2075e-20 8.4752e-22 
3.4627e-23 1.0386e-24 7.9191e-26 7.9191e-26 9.2076e-31 9.2076e-31 5.8441e-28 2.6545e-25 8.1716e-23 
1.6617e-20 2.0885e-18 1.6277e-16 7.9095e-15 2.394e-13 4.4347e-12 4.9366e-11 2.7768e-10 2.2638e-09 
1.3257e-08 5.2925e-08 1.4993e-07 3.2333e-07 5.887e-07 9.8963e-07 1.5314e-06 2.1819e-06 2.846e-06 
3.4322e-06 3.8753e-06 4.1071e-06 4.0941e-06 3.8468e-06 3.4112e-06 2.8583e-06 2.2649e-06 1.6978e-06 
1.204e-06 8.0766e-07 5.1227e-07 3.0709e-07 1.7394e-07 9.3064e-08 4.7073e-08 2.255e-08 1.025e-08 
4.4525e-09 1.8754e-09 7.7129e-10 3.4381e-10 2.0827e-10 1.3125e-10 8.6957e-11 5.9179e-11 4.0813e-11 
2.8521e-11 2.0458e-11 1.5302e-11 1.2028e-11 9.9227e-12 8.5886e-12 7.8607e-12 7.6794e-12 7.9804e-12 
8.6295e-12 9.4144e-12 1.0081e-11 1.0399e-11 1.0213e-11 9.4789e-12 8.2692e-12 6.7493e-12 4.9733e-12 
3.074e-12 1.4744e-12 5.0414e-13 1.141e-13 1.6335e-14 1.4404e-15 7.8612e-17 3.9644e-18 8.194e-19 
5.0098e-19 1.6219e-19 2.3086e-20 1.6521e-21 6.8835e-23 2.1105e-24 1.6788e-25 1.6788e-25 4.8368e-30 
4.8368e-30 3.2908e-27 1.5265e-24 4.714e-22 9.5261e-20 1.1694e-17 8.7457e-16 4.0062e-14 1.1199e-12 
1.9896e-11 2.1064e-10 1.812e-09 1.6325e-08 9.732e-08 3.9172e-07 1.1131e-06 2.3979e-06 4.3524e-06 
7.2715e-06 1.1142e-05 1.5662e-05 2.0095e-05 2.3796e-05 2.6334e-05 2.7326e-05 2.6659e-05 2.4512e-05 
2.1286e-05 1.7483e-05 1.3595e-05 1.0012e-05 6.9821e-06 4.6094e-06 2.8794e-06 1.7013e-06 9.5044e-07 
5.0216e-07 2.5106e-07 1.1895e-07 5.3587e-08 2.3082e-08 9.6138e-09 3.9263e-09 1.6374e-09 7.1091e-10 
3.6006e-10 2.4271e-10 1.7243e-10 1.2415e-10 9.0434e-11 6.7645e-11 5.2815e-11 4.3432e-11 3.7721e-11 
3.4611e-11 3.3629e-11 3.443e-11 3.6741e-11 4.0006e-11 4.338e-11 4.5987e-11 4.7074e-11 4.6231e-11 
4.3404e-11 3.8758e-11 3.268e-11 2.5179e-11 1.6519e-11 8.4882e-12 3.111e-12 7.5029e-13 1.1305e-13 
1.0283e-14 5.6069e-16 2.6627e-17 3.2594e-18 9.8362e-19 2.7644e-19 3.9101e-20 2.8329e-21 1.1985e-22 
3.7397e-24 3.0786e-25 3.0786e-25 1.9472e-29 1.9472e-29 1.3568e-26 6.3485e-24 1.9649e-21 3.9682e-19 
4.8128e-17 3.5194e-15 1.5729e-13 4.3598e-12 7.6751e-11 6.8103e-10 9.665e-09 8.9773e-08 5.4626e-07 
2.2345e-06 6.3858e-06 1.376e-05 2.4941e-05 4.1498e-05 6.311e-05 8.7692e-05 0.0001108 0.00012889 
0.00013974 0.00014182 0.00013521 0.00012143 0.00010304 8.2785e-05 6.3053e-05 4.5547e-05 3.12e-05 
2.0257e-05 1.2458e-05 7.2528e-06 3.9958e-06 2.0835e-06 1.0289e-06 4.8215e-07 2.1518e-07 9.2095e-08 
3.8277e-08 1.5763e-08 6.635e-09 2.939e-09 1.4228e-09 7.3791e-10 4.3773e-10 3.0184e-10 2.5163e-10 
2.1687e-10 1.9485e-10 1.8289e-10 1.8101e-10 1.8797e-10 2.0142e-10 2.114e-10 2.1473e-10 2.201e-10 
2.1978e-10 2.1579e-10 1.9769e-10 1.7433e-10 1.5201e-10 1.3102e-10 1.0974e-10 8.6593e-11 5.9945e-11 
3.3211e-11 1.3173e-11 3.4246e-12 5.5123e-13 5.2674e-14 2.9317e-15 1.4058e-16 1.5787e-17 2.512e-18 
4.6861e-19 6.111e-20 4.4082e-21 1.8828e-22 5.9562e-24 5.0424e-25 5.0424e-25 6.1235e-29 6.1235e-29 
4.3261e-26 2.0422e-23 6.3609e-21 1.2915e-18 1.5551e-16 1.103e-14 4.6107e-13 1.2981e-11 2.2683e-10 
2.7977e-09 4.1653e-08 3.9824e-07 2.4895e-06 1.0418e-05 3.0028e-05 6.4923e-05 0.0001181 0.00019681 
0.00029832 0.00041045 0.0005105 0.00058236 0.00061754 0.00061194 0.00056904 0.00049799 0.00041174 
0.00032249 0.00023969 0.0001692 0.00011347 7.2282e-05 4.371e-05 2.5071e-05 1.363e-05 7.0216e-06 
3.43e-06 1.5918e-06 7.048e-07 3.0027e-07 1.2495e-07 5.208e-08 2.2548e-08 1.0559e-08 5.5126e-09 
3.2405e-09 2.1881e-09 1.7202e-09 1.5401e-09 1.5028e-09 1.5393e-09 1.637e-09 1.8241e-09 2.1561e-09 
2.6761e-09 3.2851e-09 3.7419e-09 3.832e-09 3.4812e-09 2.6906e-09 1.8407e-09 1.1746e-09 7.3368e-10 
4.647e-10 3.0473e-10 2.4e-10 1.6697e-10 9.7374e-11 4.172e-11 1.1733e-11 2.0284e-12 2.0597e-13 
1.1893e-14 5.8426e-16 6.739e-17 8.2551e-18 9.0997e-19 9.3361e-20 6.4078e-21 2.7317e-22 8.7223e-24 
7.5533e-25 7.5533e-25 1.5629e-28 1.5629e-28 1.1148e-25 5.3058e-23 1.6661e-20 3.4152e-18 4.1407e-16 
2.9341e-14 1.2127e-12 3.3522e-11 4.6035e-10 9.8526e-09 1.508e-07 1.4956e-06 9.6888e-06 4.1873e-05 
0.00012288 0.00026939 0.00049613 0.00082967 0.001245 0.0016783 0.0020404 0.0022772 0.0023671 
0.0022988 0.0020909 0.0017855 0.0014376 0.001095 0.00079108 0.00054304 0.00035486 0.00022091 
0.00013105 7.4052e-05 3.98e-05 2.0322e-05 9.8576e-06 4.5476e-06 2.0028e-06 8.521e-07 3.577e-07 
1.5389e-07 7.2432e-08 4.021e-08 2.7368e-08 2.2326e-08 2.0801e-08 2.1715e-08 2.386e-08 2.6509e-08 
3.0108e-08 3.4265e-08 3.9713e-08 4.8054e-08 6.1203e-08 7.7825e-08 9.1303e-08 9.5127e-08 8.5835e-08 
6.2927e-08 3.9352e-08 2.212e-08 1.1585e-08 5.6522e-09 2.5465e-09 1.016e-09 4.2517e-10 2.3598e-10 
1.0612e-10 3.2527e-11 6.045e-12 6.5949e-13 4.0195e-14 2.0269e-15 2.3635e-16 2.7539e-17 2.1619e-18 
1.5185e-19 9.0204e-21 3.7359e-22 1.1952e-23 1.0535e-24 1.0535e-24 3.3678e-28 3.3678e-28 2.4185e-25 
1.1579e-22 3.6567e-20 7.5454e-18 9.2251e-16 6.6078e-14 2.8195e-12 8.1737e-11 1.2268e-09 2.9914e-08 
4.7602e-07 4.9551e-06 3.37e-05 0.00015322 0.00046931 0.001057 0.0019492 0.0031956 0.0046764 
0.0060364 0.0069952 0.0074761 0.007515 0.0071356 0.0064246 0.0054893 0.0044416 0.0033902 
0.0024312 0.0016357 0.0010367 0.0006248 0.00036093 0.00020037 0.00010664 5.4136e-05 2.6076e-05 
1.1985e-05 5.3001e-06 2.2813e-06 9.9271e-07 4.8124e-07 3.037e-07 2.5494e-07 2.5215e-07 2.6282e-07 
2.7722e-07 3.1449e-07 3.6885e-07 4.3611e-07 5.3521e-07 6.3547e-07 7.4898e-07 9.0841e-07 1.163e-06 
1.5196e-06 1.8479e-06 1.9829e-06 1.8077e-06 1.2847e-06 7.7193e-07 4.1685e-07 2.0872e-07 9.3408e-08 
3.4276e-08 9.1924e-09 2.1969e-09 6.0125e-10 2.448e-10 7.9152e-11 1.5562e-11 1.8651e-12 1.2254e-13 
6.3278e-15 7.0155e-16 8.2462e-17 5.7066e-18 2.8423e-19 1.2963e-20 4.9262e-22 1.5548e-23 1.3872e-24 
1.3872e-24 6.345e-28 6.345e-28 4.5818e-25 2.2045e-22 6.9909e-20 1.446e-17 1.764e-15 1.2381e-13 
5.7397e-12 1.7729e-10 3.261e-09 8.1939e-08 1.3546e-06 1.501e-05 0.00010948 0.00054458 0.0017865 
0.0040063 0.0068669 0.0098784 0.012424 0.014246 0.0152 0.015412 0.014977 0.014019 
0.01267 0.011047 0.0092481 0.0073833 0.005567 0.0039217 0.0025668 0.0015659 0.00090235 
0.00049791 0.00026416 0.00013525 6.6965e-05 3.169e-05 1.4367e-05 6.4165e-06 3.1106e-06 2.088e-06 
2.1812e-06 2.5653e-06 2.9624e-06 3.2358e-06 3.3092e-06 3.7561e-06 4.5495e-06 5.702e-06 7.7312e-06 
9.5618e-06 1.1437e-05 1.388e-05 1.7721e-05 2.3823e-05 3.0381e-05 3.3973e-05 3.1623e-05 2.1802e-05 
1.2739e-05 6.7543e-06 3.3394e-06 1.4349e-06 4.5632e-07 9.1383e-08 1.4461e-08 2.6024e-09 5.641e-10 
1.9021e-10 3.9898e-11 5.0223e-12 3.632e-13 1.9158e-14 1.8645e-15 2.1976e-16 1.5017e-17 6.157e-19 
2.0401e-20 6.47e-22 1.9477e-23 1.7433e-24 1.7433e-24 1.0753e-27 1.0753e-27 7.8078e-25 3.7775e-22 
1.2046e-19 2.504e-17 3.0682e-15 2.1317e-13 1.0389e-11 3.3168e-10 7.9319e-09 2.0606e-07 3.6e-06 
4.2827e-05 0.00034691 0.0019402 0.0063478 0.011827 0.01612 0.019436 0.021684 0.022876 
0.023136 0.022608 0.021418 0.019751 0.017799 0.015725 0.013583 0.011428 0.0092415 
0.0070122 0.0049393 0.0032137 0.0019498 0.0011313 0.00064343 0.00035781 0.00019313 9.7206e-05 
4.5298e-05 2.1234e-05 1.238e-05 1.2962e-05 2.0155e-05 2.6621e-05 3.1718e-05 3.436e-05 3.1715e-05 
3.5152e-05 4.3954e-05 5.9414e-05 9.3815e-05 0.00012024 0.00014629 0.00018007 0.0002312 0.00032879 
0.00045741 0.00055212 0.00053719 0.00035924 0.0002071 0.00010982 5.424e-05 2.1487e-05 5.5786e-06 
7.763e-07 9.1995e-08 1.267e-08 2.3309e-09 4.4288e-10 1.0646e-10 1.4168e-11 1.1112e-12 5.9651e-14 
4.7536e-15 5.3959e-16 3.8125e-17 1.468e-18 3.7491e-20 8.9381e-22 2.3924e-23 2.1097e-24 2.1097e-24 
1.679e-27 1.679e-27 1.2265e-24 5.9744e-22 1.9203e-19 4.0302e-17 5.0089e-15 3.5192e-13 1.7449e-11 
5.0724e-10 1.7732e-08 4.8313e-07 9.0428e-06 0.00011713 0.0011013 0.0057987 0.013947 0.020961 
0.024722 0.027015 0.028327 0.028714 0.028199 0.026909 0.02494 0.022513 0.019964 
0.017719 0.015767 0.014018 0.012247 0.010115 0.0077885 0.0055162 0.0036158 0.0023147 
0.0015419 0.0010029 0.00062197 0.00032829 0.00014866 6.9122e-05 4.6213e-05 6.7464e-05 0.00013337 
0.00017734 0.00021104 0.00022793 0.00018253 0.00019734 0.00025492 0.00037465 0.00071996 0.00093155 
0.0011473 0.00145 0.0018827 0.0029328 0.0046421 0.0063282 0.0066743 0.0043952 0.0025923 
0.0014474 0.00078952 0.00028306 5.5081e-05 5.1562e-06 4.6793e-07 6.2227e-08 1.1888e-08 2.1177e-09 
2.8596e-10 4.4026e-11 3.5581e-12 1.9559e-13 1.2491e-14 1.2846e-15 9.5029e-17 3.7092e-18 8.2081e-20 
1.4128e-21 2.9767e-23 2.4783e-24 2.4783e-24 2.4731e-27 2.4731e-27 1.819e-24 8.9323e-22 2.9006e-19 
6.1723e-17 7.8514e-15 5.6743e-13 2.9267e-11 8.6099e-10 3.6709e-08 1.0626e-06 2.1483e-05 0.00029996 
0.0028748 0.011313 0.02167 0.030305 0.034474 0.035917 0.036554 0.035438 0.033827 
0.031623 0.028758 0.025422 0.022438 0.021732 0.020237 0.019014 0.017824 0.014561 
0.011856 0.0088846 0.0060086 0.0045302 0.0042838 0.0034359 0.0026472 0.0013904 0.00044928 
0.00015721 0.00011351 0.0003518 0.0012146 0.0014868 0.0017542 0.0019934 0.00084952 0.000792 
0.0010998 0.0020171 0.0077839 0.0095161 0.011598 0.01498 0.01667 0.02779 0.051711 
0.074262 0.085239 0.065271 0.041574 0.025307 0.016931 0.0047998 0.00032961 1.2385e-05 
1.6441e-06 3.0394e-07 6.6121e-08 1.2837e-08 1.2748e-09 1.4891e-10 1.1985e-11 6.643e-13 3.5327e-14 
3.1207e-15 2.3973e-16 9.7965e-18 2.0706e-19 2.7591e-21 3.9995e-23 2.8512e-24 2.8512e-24 3.6898e-27 
3.6898e-27 2.737e-24 1.3578e-21 4.4672e-19 9.6787e-17 1.2706e-14 9.5972e-13 5.2391e-11 1.6783e-09 
7.5312e-08 2.3346e-06 5.0812e-05 0.00073318 0.0059272 0.017782 0.028848 0.038209 0.04669 
0.047952 0.045821 0.040991 0.038394 0.035487 0.031846 0.027939 0.025617 0.026729 
0.025667 0.024888 0.02345 0.017988 0.015158 0.011942 0.0082963 0.0066462 0.0084068 
0.0083289 0.0063985 0.0023428 0.00081534 0.00029946 0.00021801 0.00074697 0.0094412 0.013656 
0.015848 0.013751 0.0028616 0.0028784 0.0044406 0.010127 0.09301 0.12653 0.16525 
0.17152 0.12536 0.13363 0.17264 0.19925 0.21563 0.25038 0.22753 0.1701 
0.12499 0.017148 0.00091308 3.8846e-05 7.9641e-06 1.8299e-06 4.3337e-07 9.1306e-08 8.9029e-09 
4.9202e-10 4.3995e-11 2.4218e-12 1.1388e-13 8.4988e-15 6.645e-16 2.8543e-17 6.0533e-19 7.0008e-21 
6.6537e-23 3.3185e-24 3.3185e-24 5.6248e-27 5.6248e-27 4.2143e-24 2.1154e-21 7.059e-19 1.5575e-16 
2.1105e-14 1.6896e-12 9.7876e-11 3.4422e-09 1.613e-07 5.2819e-06 0.00011894 0.0017051 0.010567 
0.024698 0.035285 0.045375 0.05771 0.0588 0.05297 0.044981 0.041869 0.038402 
0.034122 0.029969 0.028012 0.031005 0.031397 0.031211 0.028513 0.020899 0.017885 
0.014673 0.010374 0.0088587 0.020287 0.024858 0.018556 0.0042229 0.001362 0.00053267 
0.00038048 0.002373 0.058294 0.088901 0.09624 0.070547 0.013106 0.012284 0.020476 
0.056523 0.25798 0.29591 0.32232 0.31757 0.26859 0.23922 0.25077 0.25583 
0.24901 0.29653 0.31261 0.29363 0.25236 0.057727 0.0041291 0.00026561 5.7461e-05 