# vtk DataFile Version 5.1
vtk output
ASCII
DATASET STRUCTURED_GRID
DIMENSIONS 99450 1 1
POINTS 99450 float
31 41 0 31 40 0 31 39 0 
31 38 0 31 37 0 31 36 0 
31 35 0 31 34 0 31 33 0 
31 32 0 31 31 0 31 30 0 
31 29 0 31 28 0 31 27 0 
31 26 0 31 25 0 31 24 0 
31 23 0 31 22 0 31 21 0 
31 20 0 31 19 0 31 18 0 
31 17 0 31 16 0 31 15 0 
31 14 0 31 13 0 31 12 0 
31 11 0 31 10 0 31 9 0 
31 8 0 31 7 0 31 6 0 
31 5 0 31 4 0 31 3 0 
31 2 0 31 1 0 31 0 0 
31 -1 0 31 -2 0 31 -3 0 
31 -4 0 31 -5 0 31 -6 0 
31 -7 0 31 -8 0 31 -9 0 
31 -10 0 31 -11 0 31 -12 0 
31 -13 0 31 -14 0 31 -15 0 
31 -16 0 31 -17 0 31 -18 0 
31 -19 0 31 -20 0 31 -21 0 
31 -22 0 31 -23 0 31 -24 0 
31 -25 0 31 -26 0 31 -27 0 
31 -28 0 31 -29 0 31 -30 0 
31 -31 0 31 -32 0 31 -33 0 
31 -34 0 31 -35 0 31 -36 0 
31 -37 0 31 -38 0 31 -39 0 
31 -40 0 31 -41 0 31 -42 0 
31 -43 0 30 41 0 30 40 0 
30 39 0 30 38 0 30 37 0 
30 36 0 30 35 0 30 34 0 
30 33 0 30 32 0 30 31 0 
30 30 0 30 29 0 30 28 0 
30 27 0 30 26 0 30 25 0 
30 24 0 30 23 0 30 22 0 
30 21 0 30 20 0 30 19 0 
30 18 0 30 17 0 30 16 0 
30 15 0 30 14 0 30 13 0 
30 12 0 30 11 0 30 10 0 
30 9 0 30 8 0 30 7 0 
30 6 0 30 5 0 30 4 0 
30 3 0 30 2 0 30 1 0 
30 0 0 30 -1 0 30 -2 0 
30 -3 0 30 -4 0 30 -5 0 
30 -6 0 30 -7 0 30 -8 0 
30 -9 0 30 -10 0 30 -11 0 
30 -12 0 30 -13 0 30 -14 0 
30 -15 0 30 -16 0 30 -17 0 
30 -18 0 30 -19 0 30 -20 0 
30 -21 0 30 -22 0 30 -23 0 
30 -24 0 30 -25 0 30 -26 0 
30 -27 0 30 -28 0 30 -29 0 
30 -30 0 30 -31 0 30 -32 0 
30 -33 0 30 -34 0 30 -35 0 
30 -36 0 30 -37 0 30 -38 0 
30 -39 0 30 -40 0 30 -41 0 
30 -42 0 30 -43 0 29 41 0 
29 40 0 29 39 0 29 38 0 
29 37 0 29 36 0 29 35 0 
29 34 0 29 33 0 29 32 0 
29 31 0 29 30 0 29 29 0 
29 28 0 29 27 0 29 26 0 
29 25 0 29 24 0 29 23 0 
29 22 0 29 21 0 29 20 0 
29 19 0 29 18 0 29 17 0 
29 16 0 29 15 0 29 14 0 
29 13 0 29 12 0 29 11 0 
29 10 0 29 9 0 29 8 0 
29 7 0 29 6 0 29 5 0 
29 4 0 29 3 0 29 2 0 
29 1 0 29 0 0 29 -1 0 
29 -2 0 29 -3 0 29 -4 0 
29 -5 0 29 -6 0 29 -7 0 
29 -8 0 29 -9 0 29 -10 0 
29 -11 0 29 -12 0 29 -13 0 
29 -14 0 29 -15 0 29 -16 0 
29 -17 0 29 -18 0 29 -19 0 
29 -20 0 29 -21 0 29 -22 0 
29 -23 0 29 -24 0 29 -25 0 
29 -26 0 29 -27 0 29 -28 0 
29 -29 0 29 -30 0 29 -31 0 
29 -32 0 29 -33 0 29 -34 0 
29 -35 0 29 -36 0 29 -37 0 
29 -38 0 29 -39 0 29 -40 0 
29 -41 0 29 -42 0 29 -43 0 
28 41 0 28 40 0 28 39 0 
28 38 0 28 37 0 28 36 0 
28 35 0 28 34 0 28 33 0 
28 32 0 28 31 0 28 30 0 
28 29 0 28 28 0 28 27 0 
28 26 0 28 25 0 28 24 0 
28 23 0 28 22 0 28 21 0 
28 20 0 28 19 0 28 18 0 
28 17 0 28 16 0 28 15 0 
28 14 0 28 13 0 28 12 0 
28 11 0 28 10 0 28 9 0 
28 8 0 28 7 0 28 6 0 
28 5 0 28 4 0 28 3 0 
28 2 0 28 1 0 28 0 0 
28 -1 0 28 -2 0 28 -3 0 
28 -4 0 28 -5 0 28 -6 0 
28 -7 0 28 -8 0 28 -9 0 
28 -10 0 28 -11 0 28 -12 0 
28 -13 0 28 -14 0 28 -15 0 
28 -16 0 28 -17 0 28 -18 0 
28 -19 0 28 -20 0 28 -21 0 
28 -22 0 28 -23 0 28 -24 0 
28 -25 0 28 -26 0 28 -27 0 
28 -28 0 28 -29 0 28 -30 0 
28 -31 0 28 -32 0 28 -33 0 
28 -34 0 28 -35 0 28 -36 0 
28 -37 0 28 -38 0 28 -39 0 
28 -40 0 28 -41 0 28 -42 0 
28 -43 0 27 41 0 27 40 0 
27 39 0 27 38 0 27 37 0 
27 36 0 27 35 0 27 34 0 
27 33 0 27 32 0 27 31 0 
27 30 0 27 29 0 27 28 0 
27 27 0 27 26 0 27 25 0 
27 24 0 27 23 0 27 22 0 
27 21 0 27 20 0 27 19 0 
27 18 0 27 17 0 27 16 0 
27 15 0 27 14 0 27 13 0 
27 12 0 27 11 0 27 10 0 
27 9 0 27 8 0 27 7 0 
27 6 0 27 5 0 27 4 0 
27 3 0 27 2 0 27 1 0 
27 0 0 27 -1 0 27 -2 0 
27 -3 0 27 -4 0 27 -5 0 
27 -6 0 27 -7 0 27 -8 0 
27 -9 0 27 -10 0 27 -11 0 
27 -12 0 27 -13 0 27 -14 0 
27 -15 0 27 -16 0 27 -17 0 
27 -18 0 27 -19 0 27 -20 0 
27 -21 0 27 -22 0 27 -23 0 
27 -24 0 27 -25 0 27 -26 0 
27 -27 0 27 -28 0 27 -29 0 
27 -30 0 27 -31 0 27 -32 0 
27 -33 0 27 -34 0 27 -35 0 
27 -36 0 27 -37 0 27 -38 0 
27 -39 0 27 -40 0 27 -41 0 
27 -42 0 27 -43 0 26 41 0 
26 40 0 26 39 0 26 38 0 
26 37 0 26 36 0 26 35 0 
26 34 0 26 33 0 26 32 0 
26 31 0 26 30 0 26 29 0 
26 28 0 26 27 0 26 26 0 
26 25 0 26 24 0 26 23 0 
26 22 0 26 21 0 26 20 0 
26 19 0 26 18 0 26 17 0 
26 16 0 26 15 0 26 14 0 
26 13 0 26 12 0 26 11 0 
26 10 0 26 9 0 26 8 0 
26 7 0 26 6 0 26 5 0 
26 4 0 26 3 0 26 2 0 
26 1 0 26 0 0 26 -1 0 
26 -2 0 26 -3 0 26 -4 0 
26 -5 0 26 -6 0 26 -7 0 
26 -8 0 26 -9 0 26 -10 0 
26 -11 0 26 -12 0 26 -13 0 
26 -14 0 26 -15 0 26 -16 0 
26 -17 0 26 -18 0 26 -19 0 
26 -20 0 26 -21 0 26 -22 0 
26 -23 0 26 -24 0 26 -25 0 
26 -26 0 26 -27 0 26 -28 0 
26 -29 0 26 -30 0 26 -31 0 
26 -32 0 26 -33 0 26 -34 0 
26 -35 0 26 -36 0 26 -37 0 
26 -38 0 26 -39 0 26 -40 0 
26 -41 0 26 -42 0 26 -43 0 
25 41 0 25 40 0 25 39 0 
25 38 0 25 37 0 25 36 0 
25 35 0 25 34 0 25 33 0 
25 32 0 25 31 0 25 30 0 
25 29 0 25 28 0 25 27 0 
25 26 0 25 25 0 25 24 0 
25 23 0 25 22 0 25 21 0 
25 20 0 25 19 0 25 18 0 
25 17 0 25 16 0 25 15 0 
25 14 0 25 13 0 25 12 0 
25 11 0 25 10 0 25 9 0 
25 8 0 25 7 0 25 6 0 
25 5 0 25 4 0 25 3 0 
25 2 0 25 1 0 25 0 0 
25 -1 0 25 -2 0 25 -3 0 
25 -4 0 25 -5 0 25 -6 0 
25 -7 0 25 -8 0 25 -9 0 
25 -10 0 25 -11 0 25 -12 0 
25 -13 0 25 -14 0 25 -15 0 
25 -16 0 25 -17 0 25 -18 0 
25 -19 0 25 -20 0 25 -21 0 
25 -22 0 25 -23 0 25 -24 0 
25 -25 0 25 -26 0 25 -27 0 
25 -28 0 25 -29 0 25 -30 0 
25 -31 0 25 -32 0 25 -33 0 
25 -34 0 25 -35 0 25 -36 0 
25 -37 0 25 -38 0 25 -39 0 
25 -40 0 25 -41 0 25 -42 0 
25 -43 0 24 41 0 24 40 0 
24 39 0 24 38 0 24 37 0 
24 36 0 24 35 0 24 34 0 
24 33 0 24 32 0 24 31 0 
24 30 0 24 29 0 24 28 0 
24 27 0 24 26 0 24 25 0 
24 24 0 24 23 0 24 22 0 
24 21 0 24 20 0 24 19 0 
24 18 0 24 17 0 24 16 0 
24 15 0 24 14 0 24 13 0 
24 12 0 24 11 0 24 10 0 
24 9 0 24 8 0 24 7 0 
24 6 0 24 5 0 24 4 0 
24 3 0 24 2 0 24 1 0 
24 0 0 24 -1 0 24 -2 0 
24 -3 0 24 -4 0 24 -5 0 
24 -6 0 24 -7 0 24 -8 0 
24 -9 0 24 -10 0 24 -11 0 
24 -12 0 24 -13 0 24 -14 0 
24 -15 0 24 -16 0 24 -17 0 
24 -18 0 24 -19 0 24 -20 0 
24 -21 0 24 -22 0 24 -23 0 
24 -24 0 24 -25 0 24 -26 0 
24 -27 0 24 -28 0 24 -29 0 
24 -30 0 24 -31 0 24 -32 0 
24 -33 0 24 -34 0 24 -35 0 
24 -36 0 24 -37 0 24 -38 0 
24 -39 0 24 -40 0 24 -41 0 
24 -42 0 24 -43 0 23 41 0 
23 40 0 23 39 0 23 38 0 
23 37 0 23 36 0 23 35 0 
23 34 0 23 33 0 23 32 0 
23 31 0 23 30 0 23 29 0 
23 28 0 23 27 0 23 26 0 
23 25 0 23 24 0 23 23 0 
23 22 0 23 21 0 23 20 0 
23 19 0 23 18 0 23 17 0 
23 16 0 23 15 0 23 14 0 
23 13 0 23 12 0 23 11 0 
23 10 0 23 9 0 23 8 0 
23 7 0 23 6 0 23 5 0 
23 4 0 23 3 0 23 2 0 
23 1 0 23 0 0 23 -1 0 
23 -2 0 23 -3 0 23 -4 0 
23 -5 0 23 -6 0 23 -7 0 
23 -8 0 23 -9 0 23 -10 0 
23 -11 0 23 -12 0 23 -13 0 
23 -14 0 23 -15 0 23 -16 0 
23 -17 0 23 -18 0 23 -19 0 
23 -20 0 23 -21 0 23 -22 0 
23 -23 0 23 -24 0 23 -25 0 
23 -26 0 23 -27 0 23 -28 0 
23 -29 0 23 -30 0 23 -31 0 
23 -32 0 23 -33 0 23 -34 0 
23 -35 0 23 -36 0 23 -37 0 
23 -38 0 23 -39 0 23 -40 0 
23 -41 0 23 -42 0 23 -43 0 
22 41 0 22 40 0 22 39 0 
22 38 0 22 37 0 22 36 0 
22 35 0 22 34 0 22 33 0 
22 32 0 22 31 0 22 30 0 
22 29 0 22 28 0 22 27 0 
22 26 0 22 25 0 22 24 0 
22 23 0 22 22 0 22 21 0 
22 20 0 22 19 0 22 18 0 
22 17 0 22 16 0 22 15 0 
22 14 0 22 13 0 22 12 0 
22 11 0 22 10 0 22 9 0 
22 8 0 22 7 0 22 6 0 
22 5 0 22 4 0 22 3 0 
22 2 0 22 1 0 22 0 0 
22 -1 0 22 -2 0 22 -3 0 
22 -4 0 22 -5 0 22 -6 0 
22 -7 0 22 -8 0 22 -9 0 
22 -10 0 22 -11 0 22 -12 0 
22 -13 0 22 -14 0 22 -15 0 
22 -16 0 22 -17 0 22 -18 0 
22 -19 0 22 -20 0 22 -21 0 
22 -22 0 22 -23 0 22 -24 0 
22 -25 0 22 -26 0 22 -27 0 
22 -28 0 22 -29 0 22 -30 0 
22 -31 0 22 -32 0 22 -33 0 
22 -34 0 22 -35 0 22 -36 0 
22 -37 0 22 -38 0 22 -39 0 
22 -40 0 22 -41 0 22 -42 0 
22 -43 0 21 41 0 21 40 0 
21 39 0 21 38 0 21 37 0 
21 36 0 21 35 0 21 34 0 
21 33 0 21 32 0 21 31 0 
21 30 0 21 29 0 21 28 0 
21 27 0 21 26 0 21 25 0 
21 24 0 21 23 0 21 22 0 
21 21 0 21 20 0 21 19 0 
21 18 0 21 17 0 21 16 0 
21 15 0 21 14 0 21 13 0 
21 12 0 21 11 0 21 10 0 
21 9 0 21 8 0 21 7 0 
21 6 0 21 5 0 21 4 0 
21 3 0 21 2 0 21 1 0 
21 0 0 21 -1 0 21 -2 0 
21 -3 0 21 -4 0 21 -5 0 
21 -6 0 21 -7 0 21 -8 0 
21 -9 0 21 -10 0 21 -11 0 
21 -12 0 21 -13 0 21 -14 0 
21 -15 0 21 -16 0 21 -17 0 
21 -18 0 21 -19 0 21 -20 0 
21 -21 0 21 -22 0 21 -23 0 
21 -24 0 21 -25 0 21 -26 0 
21 -27 0 21 -28 0 21 -29 0 
21 -30 0 21 -31 0 21 -32 0 
21 -33 0 21 -34 0 21 -35 0 
21 -36 0 21 -37 0 21 -38 0 
21 -39 0 21 -40 0 21 -41 0 
21 -42 0 21 -43 0 20 41 0 
20 40 0 20 39 0 20 38 0 
20 37 0 20 36 0 20 35 0 
20 34 0 20 33 0 20 32 0 
20 31 0 20 30 0 20 29 0 
20 28 0 20 27 0 20 26 0 
20 25 0 20 24 0 20 23 0 
20 22 0 20 21 0 20 20 0 
20 19 0 20 18 0 20 17 0 
20 16 0 20 15 0 20 14 0 
20 13 0 20 12 0 20 11 0 
20 10 0 20 9 0 20 8 0 
20 7 0 20 6 0 20 5 0 
20 4 0 20 3 0 20 2 0 
20 1 0 20 0 0 20 -1 0 
20 -2 0 20 -3 0 20 -4 0 
20 -5 0 20 -6 0 20 -7 0 
20 -8 0 20 -9 0 20 -10 0 
20 -11 0 20 -12 0 20 -13 0 
20 -14 0 20 -15 0 20 -16 0 
20 -17 0 20 -18 0 20 -19 0 
20 -20 0 20 -21 0 20 -22 0 
20 -23 0 20 -24 0 20 -25 0 
20 -26 0 20 -27 0 20 -28 0 
20 -29 0 20 -30 0 20 -31 0 
20 -32 0 20 -33 0 20 -34 0 
20 -35 0 20 -36 0 20 -37 0 
20 -38 0 20 -39 0 20 -40 0 
20 -41 0 20 -42 0 20 -43 0 
19 41 0 19 40 0 19 39 0 
19 38 0 19 37 0 19 36 0 
19 35 0 19 34 0 19 33 0 
19 32 0 19 31 0 19 30 0 
19 29 0 19 28 0 19 27 0 
19 26 0 19 25 0 19 24 0 
19 23 0 19 22 0 19 21 0 
19 20 0 19 19 0 19 18 0 
19 17 0 19 16 0 19 15 0 
19 14 0 19 13 0 19 12 0 
19 11 0 19 10 0 19 9 0 
19 8 0 19 7 0 19 6 0 
19 5 0 19 4 0 19 3 0 
19 2 0 19 1 0 19 0 0 
19 -1 0 19 -2 0 19 -3 0 
19 -4 0 19 -5 0 19 -6 0 
19 -7 0 19 -8 0 19 -9 0 
19 -10 0 19 -11 0 19 -12 0 
19 -13 0 19 -14 0 19 -15 0 
19 -16 0 19 -17 0 19 -18 0 
19 -19 0 19 -20 0 19 -21 0 
19 -22 0 19 -23 0 19 -24 0 
19 -25 0 19 -26 0 19 -27 0 
19 -28 0 19 -29 0 19 -30 0 
19 -31 0 19 -32 0 19 -33 0 
19 -34 0 19 -35 0 19 -36 0 
19 -37 0 19 -38 0 19 -39 0 
19 -40 0 19 -41 0 19 -42 0 
19 -43 0 18 41 0 18 40 0 
18 39 0 18 38 0 18 37 0 
18 36 0 18 35 0 18 34 0 
18 33 0 18 32 0 18 31 0 
18 30 0 18 29 0 18 28 0 
18 27 0 18 26 0 18 25 0 
18 24 0 18 23 0 18 22 0 
18 21 0 18 20 0 18 19 0 
18 18 0 18 17 0 18 16 0 
18 15 0 18 14 0 18 13 0 
18 12 0 18 11 0 18 10 0 
18 9 0 18 8 0 18 7 0 
18 6 0 18 5 0 18 4 0 
18 3 0 18 2 0 18 1 0 
18 0 0 18 -1 0 18 -2 0 
[...]
POINT_DATA 99450
FIELD FieldData 1
Scalars 1 99450 double
0.0014433406937 0.00093914137417 0.00067172046142 0.00053161067897 0.00045891870553 0.00042150655809 0.00040238121696 0.00039266014855 0.00038774355457 
0.00038526756622 0.00038402542772 0.00038340435848 0.00038309478195 0.00038294086265 0.00038286452688 0.00038282673778 0.00038280811061 0.00038279888614 
0.00038279438532 0.00038279215719 0.00038279104312 0.00038279050837 0.00038279028556 0.00038279015187 0.00038279006274 0.00038279006274 0.00038279001818 
0.00038279001818 0.00038279001818 0.00038279001818 0.00038279001818 0.00038279001818 0.00038279001818 0.00038279001818 0.00038279001818 0.00038279001818 
0.00038279001818 0.00038279001818 0.00038279001818 0.00038279001818 0.00038279001818 0.00038279001818 0.00038279001818 0.00038279001818 0.00038279001818 
0.00038279001818 0.00038279001818 0.00038279001818 0.00038279001818 0.00038279001818 0.00038279001818 0.00038279001818 0.00038279001818 0.00038279001818 
0.00038279001818 0.00038279001818 0.00038279001818 0.00038279001818 0.00038279001818 0.00038279001818 0.00038279001818 0.00038279001818 0.00038279001818 
0.00038279001818 0.00038279001818 0.00038279001818 0.00038279001818 0.00038279001818 0.00038279001818 0.00038279001818 0.00038279001818 0.00038279001818 
0.00038279001818 0.00038279001818 0.00038279001818 0.00038279001818 0.00038279001818 0.00038279001818 0.00038279001818 0.00038279001818 0.00038279001818 
0.00038279001818 0.00038279001818 0.00038279001818 0.00038279001818 0.0033093107898 0.0019526210433 0.0012124574761 0.00081623713058 0.00060714334126 
0.00049802900076 0.00044160207205 0.0004126397997 0.00039786818207 0.00039037484366 0.00038659147713 0.00038468905428 0.00038373594894 0.00038325993102 
0.00038302290244 0.00038290521256 0.00038284688009 0.00038281804807 0.00038280378803 0.0003827967917 0.00038279331582 0.00038279162244 0.00038279082031 
0.00038279041925 0.00038279019643 0.00038279010731 0.00038279006274 0.00038279001818 0.00038279001818 0.00038279001818 0.00038279001818 0.00038279001818 
0.00038279001818 0.00038279001818 0.00038279001818 0.00038279001818 0.00038279001818 0.00038279001818 0.00038279001818 0.00038279001818 0.00038279001818 
0.00038279001818 0.00038279001818 0.00038279001818 0.00038279001818 0.00038279001818 0.00038279001818 0.00038279001818 0.00038279001818 0.00038279001818 
0.00038279001818 0.00038279001818 0.00038279001818 0.00038279001818 0.00038279001818 0.00038279001818 0.00038279001818 0.00038279001818 0.00038279001818 
0.00038279001818 0.00038279001818 0.00038279001818 0.00038279001818 0.00038279001818 0.00038279001818 0.00038279001818 0.00038279001818 0.00038279001818 
0.00038279001818 0.00038279001818 0.00038279001818 0.00038279001818 0.00038279001818 0.00038279001818 0.00038279001818 0.00038279001818 0.00038279001818 
0.00038279001818 0.00038279001818 0.00038279001818 0.00038279001818 0.00038279001818 0.00038279001818 0.00038279001818 0.00038279001818 0.0080401035947 
0.0046409210498 0.0026934104479 0.0016146265749 0.001030745011 0.00072002607525 0.0005568038894 0.0004719406164 0.00042818774274 0.00040578767284 
0.00039438766312 0.00038861555594 0.00038570592873 0.00038424498776 0.00038351398252 0.00038314937116 0.00038296795673 0.00038287794023 0.00038283337761 
0.00038281136368 0.00038280053496 0.00038279518745 0.00038279255825 0.00038279126593 0.00038279064206 0.00038279033012 0.00038279015187 0.00038279010731 
0.00038279006274 0.00038279001818 0.00038279001818 0.00038279001818 0.00038279001818 0.00038279001818 0.00038279001818 0.00038279001818 0.00038279001818 
0.00038279001818 0.00038279001818 0.00038279001818 0.00038279001818 0.00038279001818 0.00038279001818 0.00038279001818 0.00038279001818 0.00038279001818 
0.00038279001818 0.00038279001818 0.00038279001818 0.00038279001818 0.00038279001818 0.00038279001818 0.00038279001818 0.00038279001818 0.00038279001818 
0.00038279001818 0.00038279001818 0.00038279001818 0.00038279001818 0.00038279001818 0.00038279001818 0.00038279001818 0.00038279001818 0.00038279001818 
0.00038279001818 0.00038279001818 0.00038279001818 0.00038279001818 0.00038279001818 0.00038279001818 0.00038279001818 0.00038279001818 0.00038279001818 
0.00038279001818 0.00038279001818 0.00038279001818 0.00038279001818 0.00038279001818 0.00038279001818 0.00038279001818 0.00038279001818 0.00038279001818 
0.00038279001818 0.00038279001818 0.00038279001818 0.018563041071 0.011198921779 0.0065214337117 0.0037610809379 0.0022024597739 0.0013475237502 
0.00088805175515 0.00064484211547 0.00051761913003 0.00045169768929 0.00041780647911 0.0004004967974 0.00039170543896 0.00038726201089 0.00038502568032 
0.00038390435108 0.00038334393156 0.00038306470218 0.00038292593418 0.00038285712949 0.00038282308365 0.00038280628354 0.00038279799489 0.00038279393969 
0.00038279193437 0.000382790954 0.00038279046381 0.00038279024099 0.00038279010731 0.00038279006274 0.00038279006274 0.00038279001818 0.00038279001818 
0.00038279001818 0.00038279001818 0.00038279001818 0.00038279001818 0.00038279001818 0.00038279001818 0.00038279001818 0.00038279001818 0.00038279001818 
0.00038279001818 0.00038279001818 0.00038279001818 0.00038279001818 0.00038279001818 0.00038279001818 0.00038279001818 0.00038279001818 0.00038279001818 
0.00038279001818 0.00038279001818 0.00038279001818 0.00038279001818 0.00038279001818 0.00038279001818 0.00038279001818 0.00038279001818 0.00038279001818 
0.00038279001818 0.00038279001818 0.00038279001818 0.00038279001818 0.00038279001818 0.00038279001818 0.00038279001818 0.00038279001818 0.00038279001818 
0.00038279001818 0.00038279001818 0.00038279001818 0.00038279001818 0.00038279001818 0.00038279001818 0.00038279001818 0.00038279001818 0.00038279001818 
0.00038279001818 0.00038279001818 0.00038279001818 0.00038279001818 0.00038279001818 0.00038279001818 0.00038279001818 0.035255401778 0.024552726495 
0.01539261379 0.0091302714349 0.005282141873 0.0030547141973 0.0018125259665 0.0011369924598 0.00077622221414 0.00058618193101 0.00048715540929 
0.0004360066111 0.00040977968155 0.00039641454938 0.0003896396941 0.00038622129544 0.00038450336184 0.00038364308044 0.00038321367502 0.00038299990813 
0.00038289380453 0.00038284122063 0.00038281524063 0.00038280240659 0.00038279612326 0.00038279300388 0.00038279148875 0.00038279073118 0.00038279037468 
0.00038279019643 0.00038279010731 0.00038279006274 0.00038279001818 0.00038279001818 0.00038279001818 0.00038279001818 0.00038279001818 0.00038279001818 
0.00038279001818 0.00038279001818 0.00038279001818 0.00038279001818 0.00038279001818 0.00038279001818 0.00038279001818 0.00038279001818 0.00038279001818 
0.00038279001818 0.00038279001818 0.00038279001818 0.00038279001818 0.00038279001818 0.00038279001818 0.00038279001818 0.00038279001818 0.00038279001818 
0.00038279001818 0.00038279001818 0.00038279001818 0.00038279001818 0.00038279001818 0.00038279001818 0.00038279001818 0.00038279001818 0.00038279001818 
0.00038279001818 0.00038279001818 0.00038279001818 0.00038279001818 0.00038279001818 0.00038279001818 0.00038279001818 0.00038279001818 0.00038279001818 
0.00038279001818 0.00038279001818 0.00038279001818 0.00038279001818 0.00038279001818 0.00038279001818 0.00038279001818 0.00038279001818 0.00038279001818 
0.00038279001818 0.00038279001818 0.036457371886 0.040180097598 0.03122723174 0.02072228045 0.01266299853 0.0074170005072 0.0042780365751 
0.0024902337725 0.0015038285695 0.0009714498983 0.0006887417784 0.00054048149257 0.00046350094616 0.0004238563451 0.00040357870371 0.00039326722514 
0.00038804987803 0.00038542153008 0.00038410252106 0.00038344286058 0.00038311389931 0.00038295035449 0.00038286925052 0.00038282905504 0.00038280922467 
0.00038279946546 0.00038279465269 0.00038279229088 0.00038279113225 0.00038279055293 0.00038279028556 0.00038279015187 0.00038279006274 0.00038279006274 
0.00038279001818 0.00038279001818 0.00038279001818 0.00038279001818 0.00038279001818 0.00038279001818 0.00038279001818 0.00038279001818 0.00038279001818 
0.00038279001818 0.00038279001818 0.00038279001818 0.00038279001818 0.00038279001818 0.00038279001818 0.00038279001818 0.00038279001818 0.00038279001818 
0.00038279001818 0.00038279001818 0.00038279001818 0.00038279001818 0.00038279001818 0.00038279001818 0.00038279001818 0.00038279001818 0.00038279001818 
0.00038279001818 0.00038279001818 0.00038279001818 0.00038279001818 0.00038279001818 0.00038279001818 0.00038279001818 0.00038279001818 0.00038279001818 
0.00038279001818 0.00038279001818 0.00038279001818 0.00038279001818 0.00038279001818 0.00038279001818 0.00038279001818 0.00038279001818 0.00038279001818 
0.00038279001818 0.00038279001818 0.00038279001818 0.00038279001818 0.00038279001818 0.00038279001818 -0.037035197212 0.02040388801 0.040422680821 
0.037459319284 0.027051076725 0.017285207557 0.010354244783 0.0060117806404 0.003469322328 0.0020409277591 0.0012601275378 0.00084155618586 
0.00062042282408 0.00050492475443 0.00044515366839 0.00041445661776 0.0003987920989 0.00039084235012 0.00038682699058 0.00038480727891 0.00038379503897 
0.00038328943148 0.00038303756354 0.00038291247626 0.0003828504451 0.00038281978601 0.00038280467928 0.00038279723733 0.00038279353863 0.00038279175612 
0.00038279086487 0.00038279041925 0.00038279024099 0.00038279010731 0.00038279006274 0.00038279006274 0.00038279001818 0.00038279001818 0.00038279001818 
0.00038279001818 0.00038279001818 0.00038279001818 0.00038279001818 0.00038279001818 0.00038279001818 0.00038279001818 0.00038279001818 0.00038279001818 
0.00038279001818 0.00038279001818 0.00038279001818 0.00038279001818 0.00038279001818 0.00038279001818 0.00038279001818 0.00038279001818 0.00038279001818 
0.00038279001818 0.00038279001818 0.00038279001818 0.00038279001818 0.00038279001818 0.00038279001818 0.00038279001818 0.00038279001818 0.00038279001818 
0.00038279001818 0.00038279001818 0.00038279001818 0.00038279001818 0.00038279001818 0.00038279001818 0.00038279001818 0.00038279001818 0.00038279001818 
0.00038279001818 0.00038279001818 0.00038279001818 0.00038279001818 0.00038279001818 0.00038279001818 0.00038279001818 0.00038279001818 0.00038279001818 
0.00038279001818 -0.19992770522 -0.091413887037 -0.010272727985 0.031912358153 0.041027939609 0.033741769966 0.023030959331 0.014285795215 
0.0084284793147 0.0048684249947 0.0028212688072 0.0016845365931 0.0010682285032 0.0007398316648 0.00056714954751 0.00047729535007 0.0004309379249 
0.00040719117259 0.00039509999662 0.00038897535454 0.00038588694209 0.00038433571726 0.00038355930271 0.00038317191984 0.00038297918651 0.00038288351056 
0.00038283614049 0.00038281274512 0.0003828012034 0.00038279549938 0.00038279269194 0.00038279135506 0.00038279064206 0.00038279033012 0.00038279015187 
0.00038279010731 0.00038279006274 0.00038279001818 0.00038279001818 0.00038279001818 0.00038279001818 0.00038279001818 0.00038279001818 0.00038279001818 
0.00038279001818 0.00038279001818 0.00038279001818 0.00038279001818 0.00038279001818 0.00038279001818 0.00038279001818 0.00038279001818 0.00038279001818 
0.00038279001818 0.00038279001818 0.00038279001818 0.00038279001818 0.00038279001818 0.00038279001818 0.00038279001818 0.00038279001818 0.00038279001818 
0.00038279001818 0.00038279001818 0.00038279001818 0.00038279001818 0.00038279001818 0.00038279001818 0.00038279001818 0.00038279001818 0.00038279001818 
0.00038279001818 0.00038279001818 0.00038279001818 0.00038279001818 0.00038279001818 0.00038279001818 0.00038279001818 0.00038279001818 0.00038279001818 
0.00038279001818 0.00038279001818 0.00038279001818 0.00038279001818 0.00038279001818 -0.39354257116 -0.27312998271 -0.15631110656 -0.056206764046 
0.010566412057 0.038455796531 0.03929197383 0.029610571149 0.019343360373 0.011722461989 0.0068398810537 0.0039442842901 0.0023042151323 
0.0014027049308 0.00091745987653 0.00066030855348 0.00052566771871 0.00045585047994 0.00041993398776 0.00040158011472 0.00039225418308 0.00038753874477 
0.00038516467113 0.00038397391333 0.00038337864584 0.00038308194791 0.0003829344902 0.00038286136294 0.00038282517809 0.00038280730848 0.00038279852964 
0.00038279420707 0.00038279206806 0.00038279099856 0.00038279050837 0.00038279024099 0.00038279015187 0.00038279006274 0.00038279006274 0.00038279001818 
0.00038279001818 0.00038279001818 0.00038279001818 0.00038279001818 0.00038279001818 0.00038279001818 0.00038279001818 0.00038279001818 0.00038279001818 
0.00038279001818 0.00038279001818 0.00038279001818 0.00038279001818 0.00038279001818 0.00038279001818 0.00038279001818 0.00038279001818 0.00038279001818 
0.00038279001818 0.00038279001818 0.00038279001818 0.00038279001818 0.00038279001818 0.00038279001818 0.00038279001818 0.00038279001818 0.00038279001818 
0.00038279001818 0.00038279001818 0.00038279001818 0.00038279001818 0.00038279001818 0.00038279001818 0.00038279001818 0.00038279001818 0.00038279001818 
0.00038279001818 0.00038279001818 0.00038279001818 0.00038279001818 0.00038279001818 0.00038279001818 0.00038279001818 0.00038279001818 0.00038279001818 
-0.58372549068 -0.46704346527 -0.34753626379 -0.22747246449 -0.11508385154 -0.026007353118 0.025493846271 0.040997388902 0.036104239139 
0.025466518333 0.016073208362 0.0095668667628 0.0055412121962 0.0032015052535 0.001893235112 0.0011804445804 0.00079925235495 0.00059824169033 
0.00049340981771 0.00043922429972 0.00041142408683 0.00039725014308 0.00039006223687 0.00038643403739 0.00038461008931 0.00038369642189 0.00038324023434 
0.00038301314323 0.00038290035523 0.0003828444737 0.00038281684488 0.00038280320872 0.00038279647976 0.00038279318213 0.00038279157787 0.00038279077575 
0.00038279037468 0.00038279019643 0.00038279010731 0.00038279006274 0.00038279001818 0.00038279001818 0.00038279001818 0.00038279001818 0.00038279001818 
0.00038279001818 0.00038279001818 0.00038279001818 0.00038279001818 0.00038279001818 0.00038279001818 0.00038279001818 0.00038279001818 0.00038279001818 
0.00038279001818 0.00038279001818 0.00038279001818 0.00038279001818 0.00038279001818 0.00038279001818 0.00038279001818 0.00038279001818 0.00038279001818 
0.00038279001818 0.00038279001818 0.00038279001818 0.00038279001818 0.00038279001818 0.00038279001818 0.00038279001818 0.00038279001818 0.00038279001818 
0.00038279001818 0.00038279001818 0.00038279001818 0.00038279001818 0.00038279001818 0.00038279001818 0.00038279001818 0.00038279001818 0.00038279001818 
0.00038279001818 0.00038279001818 0.00038279001818 0.00038279001818 -0.76728080052 -0.65441334688 -0.53942326936 -0.42161166634 -0.30138557639 
-0.18284586721 -0.077268168182 -0.0015050481593 0.034981352353 0.040582042458 0.032168208916 0.021559805323 0.013244388865 0.0077770472342 
0.0044873971163 0.0026073413104 0.0015676458078 0.0010055845986 0.00070674489905 0.0005498714607 0.00046835492966 0.00042634694999 0.00040484864929 
0.0003939112887 0.00038837496235 0.00038558498577 0.00038418438259 0.0003834837245 0.00038313426443 0.00038296047021 0.00038287424154 0.00038283155054 
0.00038281047242 0.00038280008933 0.00038279496463 0.00038279242456 0.00038279122137 0.0003827905975 0.00038279028556 0.00038279015187 0.00038279010731 
0.00038279006274 0.00038279001818 0.00038279001818 0.00038279001818 0.00038279001818 0.00038279001818 0.00038279001818 0.00038279001818 0.00038279001818 
0.00038279001818 0.00038279001818 0.00038279001818 0.00038279001818 0.00038279001818 0.00038279001818 0.00038279001818 0.00038279001818 0.00038279001818 
0.00038279001818 0.00038279001818 0.00038279001818 0.00038279001818 0.00038279001818 0.00038279001818 0.00038279001818 0.00038279001818 0.00038279001818 
0.00038279001818 0.00038279001818 0.00038279001818 0.00038279001818 0.00038279001818 0.00038279001818 0.00038279001818 0.00038279001818 0.00038279001818 
0.00038279001818 0.00038279001818 0.00038279001818 0.00038279001818 0.00038279001818 0.00038279001818 0.00038279001818 0.00038279001818 -0.94719311538 
-0.83624052255 -0.72429260184 -0.61070986465 -0.49469872272 -0.37579067104 -0.25540146906 -0.14003753895 -0.043894481187 0.017020976169 
0.039855476372 0.038189002614 0.027993636765 0.018027446851 0.010842997629 0.0063060714767 0.0036375761685 0.0021340003582 0.001310455136 
0.00086831835705 0.00063447315112 0.00051222669639 0.00044891698173 0.0004163826588 0.00039977203093 0.00039133842121 0.00038707698689 0.00038493276725 
0.00038385782771 0.000383320759 0.00038305316046 0.0003829201856 0.00038285427748 0.00038282170221 0.0003828056151 0.00038279768295 0.00038279376144 
0.00038279184525 0.00038279090943 0.00038279046381 0.00038279024099 0.00038279010731 0.00038279006274 0.00038279006274 0.00038279001818 0.00038279001818 
0.00038279001818 0.00038279001818 0.00038279001818 0.00038279001818 0.00038279001818 0.00038279001818 0.00038279001818 0.00038279001818 0.00038279001818 
0.00038279001818 0.00038279001818 0.00038279001818 0.00038279001818 0.00038279001818 0.00038279001818 0.00038279001818 0.00038279001818 0.00038279001818 
0.00038279001818 0.00038279001818 0.00038279001818 0.00038279001818 0.00038279001818 0.00038279001818 0.00038279001818 0.00038279001818 0.00038279001818 
0.00038279001818 0.00038279001818 0.00038279001818 0.00038279001818 0.00038279001818 0.00038279001818 0.00038279001818 0.00038279001818 0.00038279001818 
0.00038279001818 0.00038279001818 0.00038279001818 -1.1255478233 -1.0153865828 -0.90482514853 -0.79355267451 -0.68106711611 -0.56664908289 
-0.44953273092 -0.32970040056 -0.21006159605 -0.10000423704 -0.015835231132 0.02976701233 0.041131056801 0.034639453665 0.023918649594 
0.014927578241 0.0088341909637 0.0051071833188 0.0029558489923 0.0017582663408 0.0011078192726 0.00076077467069 0.0005780992965 0.00048296652291 
0.00043385258769 0.00040867938588 0.00039585564498 0.00038935721164 0.00038607909612 0.00038443206164 0.00038360743034 0.00038319589453 0.00038299108473 
0.00038288939283 0.00038283903706 0.00038281417112 0.00038280187184 0.00038279585588 0.00038279287019 0.00038279139962 0.00038279068662 0.00038279037468 
0.00038279019643 0.00038279010731 0.00038279006274 0.00038279001818 0.00038279001818 0.00038279001818 0.00038279001818 0.00038279001818 0.00038279001818 
0.00038279001818 0.00038279001818 0.00038279001818 0.00038279001818 0.00038279001818 0.00038279001818 0.00038279001818 0.00038279001818 0.00038279001818 
0.00038279001818 0.00038279001818 0.00038279001818 0.00038279001818 0.00038279001818 0.00038279001818 0.00038279001818 0.00038279001818 0.00038279001818 
0.00038279001818 0.00038279001818 0.00038279001818 0.00038279001818 0.00038279001818 0.00038279001818 0.00038279001818 0.00038279001818 0.00038279001818 
0.00038279001818 0.00038279001818 0.00038279001818 0.00038279001818 0.00038279001818 0.00038279001818 0.00038279001818 -1.3033023776 -1.1934409401 
-1.0834299205 -0.97314255278 -0.86235514824 -0.75068982727 -0.63755962385 -0.52218701223 -0.40394176715 -0.28356899273 -0.16603386335 
-0.063788239127 0.0063642388877 0.037359036988 0.039842405621 0.03056090291 0.020145421956 0.012267064276 0.0071732672122 0.0041368065775 
0.0024114183602 0.0014609445333 0.00094853891795 0.00067666985349 0.00053418925048 0.00046025032577 0.00042218930201 0.00040272907278 0.00039283648285 
0.00038783250157 0.00038531226253 0.00038404779816 0.00038341554369 0.00038310030771 0.00038294362554 0.00038286590833 0.00038282740622 0.00038280842254 
0.00038279906439 0.00038279447444 0.00038279220175 0.00038279108768 0.00038279055293 0.00038279028556 0.00038279015187 0.00038279006274 0.00038279006274 
0.00038279001818 0.00038279001818 0.00038279001818 0.00038279001818 0.00038279001818 0.00038279001818 0.00038279001818 0.00038279001818 0.00038279001818 
0.00038279001818 0.00038279001818 0.00038279001818 0.00038279001818 0.00038279001818 0.00038279001818 0.00038279001818 0.00038279001818 0.00038279001818 
0.00038279001818 0.00038279001818 0.00038279001818 0.00038279001818 0.00038279001818 0.00038279001818 0.00038279001818 0.00038279001818 0.00038279001818 